/*--------------------------------*- C++ -*----------------------------------*\
| =========                 |                                                 |
| \\      /  F ield         | OpenFOAM: The Open Source CFD Toolbox           |
|  \\    /   O peration     | Version:  2412                                  |
|   \\  /    A nd           | Website:  www.openfoam.com                      |
|    \\/     M anipulation  |                                                 |
\*---------------------------------------------------------------------------*/
FoamFile
{
    version     2.0;
    format      ascii;
    arch        "LSB;label=32;scalar=64";
    class       volScalarField;
    location    "1000";
    object      nut;
}
// * * * * * * * * * * * * * * * * * * * * * * * * * * * * * * * * * * * * * //

dimensions      [0 2 -1 0 0 0 0];

internalField   nonuniform List<scalar> 
14620
(
1.04477e-09
1.04605e-09
1.04721e-09
1.04825e-09
1.04918e-09
1.05001e-09
1.05077e-09
1.05144e-09
1.05204e-09
1.05258e-09
1.05307e-09
1.05351e-09
1.05389e-09
1.05427e-09
1.05452e-09
1.04479e-09
1.04611e-09
1.04731e-09
1.04838e-09
1.04934e-09
1.05021e-09
1.05099e-09
1.05168e-09
1.05231e-09
1.05287e-09
1.05338e-09
1.05383e-09
1.05424e-09
1.05461e-09
1.05492e-09
1.04481e-09
1.04616e-09
1.04738e-09
1.04848e-09
1.04947e-09
1.05036e-09
1.05115e-09
1.05187e-09
1.05252e-09
1.0531e-09
1.05362e-09
1.05409e-09
1.05451e-09
1.0549e-09
1.05522e-09
1.04481e-09
1.04618e-09
1.04742e-09
1.04853e-09
1.04953e-09
1.05043e-09
1.05124e-09
1.05197e-09
1.05263e-09
1.05322e-09
1.05375e-09
1.05423e-09
1.05466e-09
1.05506e-09
1.05539e-09
1.04481e-09
1.04619e-09
1.04742e-09
1.04853e-09
1.04954e-09
1.05044e-09
1.05125e-09
1.05198e-09
1.05264e-09
1.05324e-09
1.05377e-09
1.05425e-09
1.05469e-09
1.05508e-09
1.05542e-09
1.0448e-09
1.04615e-09
1.04737e-09
1.04847e-09
1.04946e-09
1.05035e-09
1.05115e-09
1.05187e-09
1.05252e-09
1.05311e-09
1.05364e-09
1.05412e-09
1.05455e-09
1.05494e-09
1.05528e-09
1.04478e-09
1.04609e-09
1.04727e-09
1.04833e-09
1.04929e-09
1.05015e-09
1.05093e-09
1.05163e-09
1.05226e-09
1.05283e-09
1.05335e-09
1.05381e-09
1.05423e-09
1.05461e-09
1.05494e-09
1.04475e-09
1.04599e-09
1.04711e-09
1.04811e-09
1.04902e-09
1.04984e-09
1.05058e-09
1.05125e-09
1.05185e-09
1.05239e-09
1.05288e-09
1.05333e-09
1.05372e-09
1.05408e-09
1.0544e-09
1.0447e-09
1.04585e-09
1.04689e-09
1.04783e-09
1.04867e-09
1.04943e-09
1.05012e-09
1.05074e-09
1.0513e-09
1.0518e-09
1.05226e-09
1.05267e-09
1.05304e-09
1.05337e-09
1.05367e-09
1.04464e-09
1.04568e-09
1.04662e-09
1.04747e-09
1.04823e-09
1.04892e-09
1.04954e-09
1.0501e-09
1.05061e-09
1.05106e-09
1.05148e-09
1.05185e-09
1.05218e-09
1.05248e-09
1.05275e-09
1.04458e-09
1.04549e-09
1.04631e-09
1.04705e-09
1.04772e-09
1.04833e-09
1.04887e-09
1.04936e-09
1.04981e-09
1.0502e-09
1.05057e-09
1.05089e-09
1.05118e-09
1.05145e-09
1.05168e-09
1.0445e-09
1.04527e-09
1.04596e-09
1.04659e-09
1.04715e-09
1.04766e-09
1.04812e-09
1.04853e-09
1.0489e-09
1.04924e-09
1.04954e-09
1.04982e-09
1.05006e-09
1.05029e-09
1.05049e-09
1.04442e-09
1.04503e-09
1.04558e-09
1.04608e-09
1.04652e-09
1.04693e-09
1.04729e-09
1.04762e-09
1.04792e-09
1.04819e-09
1.04843e-09
1.04865e-09
1.04884e-09
1.04902e-09
1.04918e-09
1.04432e-09
1.04476e-09
1.04515e-09
1.04551e-09
1.04583e-09
1.04612e-09
1.04638e-09
1.04662e-09
1.04683e-09
1.04702e-09
1.0472e-09
1.04735e-09
1.0475e-09
1.04762e-09
1.04774e-09
1.04418e-09
1.04435e-09
1.04451e-09
1.04465e-09
1.04476e-09
1.04484e-09
1.04488e-09
1.0449e-09
1.04491e-09
1.04492e-09
1.04492e-09
1.04493e-09
1.04493e-09
1.04493e-09
1.04494e-09
1.05476e-09
1.05493e-09
1.05511e-09
1.05527e-09
1.0554e-09
1.0555e-09
1.05556e-09
1.0556e-09
1.05562e-09
1.05564e-09
1.05565e-09
1.05568e-09
1.05573e-09
1.0558e-09
1.0559e-09
1.05603e-09
1.05619e-09
1.05637e-09
1.05659e-09
1.05682e-09
1.05707e-09
1.05733e-09
1.05759e-09
1.05784e-09
1.05807e-09
1.0583e-09
1.05852e-09
1.05873e-09
1.05894e-09
1.05916e-09
1.05936e-09
1.05957e-09
1.05978e-09
1.05999e-09
1.0602e-09
1.06041e-09
1.06062e-09
1.06083e-09
1.06105e-09
1.06127e-09
1.0615e-09
1.06173e-09
1.06197e-09
1.06222e-09
1.06248e-09
1.06274e-09
1.063e-09
1.06333e-09
1.0635e-09
1.06402e-09
1.05519e-09
1.05542e-09
1.05565e-09
1.05587e-09
1.0561e-09
1.05633e-09
1.05656e-09
1.05679e-09
1.05701e-09
1.05724e-09
1.05746e-09
1.05768e-09
1.05788e-09
1.05808e-09
1.05827e-09
1.05845e-09
1.05863e-09
1.0588e-09
1.05896e-09
1.05911e-09
1.05926e-09
1.05941e-09
1.05955e-09
1.0597e-09
1.05984e-09
1.05998e-09
1.06013e-09
1.06027e-09
1.06042e-09
1.06056e-09
1.06071e-09
1.06086e-09
1.06101e-09
1.06116e-09
1.06131e-09
1.06146e-09
1.06161e-09
1.06177e-09
1.06192e-09
1.06207e-09
1.06222e-09
1.06238e-09
1.06253e-09
1.06268e-09
1.06283e-09
1.06298e-09
1.06313e-09
1.06334e-09
1.0636e-09
1.06396e-09
1.05551e-09
1.05574e-09
1.05597e-09
1.0562e-09
1.05643e-09
1.05666e-09
1.05689e-09
1.05711e-09
1.05734e-09
1.05756e-09
1.05779e-09
1.05801e-09
1.05824e-09
1.05847e-09
1.0587e-09
1.05892e-09
1.05915e-09
1.05938e-09
1.05961e-09
1.05984e-09
1.06007e-09
1.06029e-09
1.06051e-09
1.06073e-09
1.06095e-09
1.06117e-09
1.06138e-09
1.06159e-09
1.0618e-09
1.06201e-09
1.06221e-09
1.06241e-09
1.06261e-09
1.06281e-09
1.06301e-09
1.0632e-09
1.06339e-09
1.06358e-09
1.06377e-09
1.06396e-09
1.06414e-09
1.06433e-09
1.06451e-09
1.06468e-09
1.06486e-09
1.06503e-09
1.0652e-09
1.06537e-09
1.06553e-09
1.0657e-09
1.05568e-09
1.05592e-09
1.05615e-09
1.05638e-09
1.05661e-09
1.05685e-09
1.05708e-09
1.05731e-09
1.05754e-09
1.05777e-09
1.05801e-09
1.05824e-09
1.05847e-09
1.0587e-09
1.05893e-09
1.05916e-09
1.05939e-09
1.05961e-09
1.05984e-09
1.06007e-09
1.06029e-09
1.06052e-09
1.06074e-09
1.06097e-09
1.06119e-09
1.06142e-09
1.06164e-09
1.06187e-09
1.06209e-09
1.06231e-09
1.06254e-09
1.06276e-09
1.06298e-09
1.0632e-09
1.06343e-09
1.06365e-09
1.06387e-09
1.06409e-09
1.06431e-09
1.06453e-09
1.06475e-09
1.06497e-09
1.06519e-09
1.0654e-09
1.06562e-09
1.06584e-09
1.06605e-09
1.06626e-09
1.06648e-09
1.06671e-09
1.05571e-09
1.05594e-09
1.05618e-09
1.05641e-09
1.05664e-09
1.05687e-09
1.0571e-09
1.05733e-09
1.05756e-09
1.05779e-09
1.05802e-09
1.05824e-09
1.05847e-09
1.0587e-09
1.05893e-09
1.05916e-09
1.05939e-09
1.05962e-09
1.05985e-09
1.06008e-09
1.06031e-09
1.06054e-09
1.06077e-09
1.061e-09
1.06123e-09
1.06146e-09
1.06169e-09
1.06192e-09
1.06214e-09
1.06237e-09
1.0626e-09
1.06283e-09
1.06306e-09
1.06329e-09
1.06352e-09
1.06375e-09
1.06398e-09
1.06421e-09
1.06444e-09
1.06467e-09
1.0649e-09
1.06513e-09
1.06536e-09
1.06559e-09
1.06582e-09
1.06605e-09
1.06628e-09
1.06651e-09
1.06674e-09
1.06698e-09
1.05556e-09
1.05579e-09
1.05602e-09
1.05624e-09
1.05647e-09
1.05669e-09
1.05692e-09
1.05715e-09
1.05737e-09
1.0576e-09
1.05783e-09
1.05805e-09
1.05828e-09
1.05851e-09
1.05873e-09
1.05896e-09
1.05919e-09
1.05941e-09
1.05964e-09
1.05987e-09
1.0601e-09
1.06032e-09
1.06055e-09
1.06078e-09
1.061e-09
1.06123e-09
1.06146e-09
1.06168e-09
1.06191e-09
1.06214e-09
1.06236e-09
1.06259e-09
1.06282e-09
1.06304e-09
1.06327e-09
1.0635e-09
1.06373e-09
1.06395e-09
1.06418e-09
1.06441e-09
1.06464e-09
1.06487e-09
1.0651e-09
1.06532e-09
1.06555e-09
1.06578e-09
1.06601e-09
1.06624e-09
1.06647e-09
1.06671e-09
1.05521e-09
1.05543e-09
1.05565e-09
1.05587e-09
1.05609e-09
1.0563e-09
1.05652e-09
1.05674e-09
1.05696e-09
1.05718e-09
1.05739e-09
1.05761e-09
1.05783e-09
1.05805e-09
1.05827e-09
1.05849e-09
1.05871e-09
1.05893e-09
1.05915e-09
1.05937e-09
1.05959e-09
1.05981e-09
1.06003e-09
1.06025e-09
1.06047e-09
1.06069e-09
1.06092e-09
1.06114e-09
1.06136e-09
1.06159e-09
1.06181e-09
1.06203e-09
1.06226e-09
1.06248e-09
1.06271e-09
1.06293e-09
1.06316e-09
1.06339e-09
1.06361e-09
1.06384e-09
1.06407e-09
1.06429e-09
1.06452e-09
1.06475e-09
1.06498e-09
1.06521e-09
1.06544e-09
1.06567e-09
1.0659e-09
1.06614e-09
1.05466e-09
1.05487e-09
1.05507e-09
1.05528e-09
1.05548e-09
1.05569e-09
1.0559e-09
1.0561e-09
1.05631e-09
1.05651e-09
1.05672e-09
1.05693e-09
1.05714e-09
1.05734e-09
1.05755e-09
1.05776e-09
1.05797e-09
1.05818e-09
1.05839e-09
1.0586e-09
1.05881e-09
1.05902e-09
1.05923e-09
1.05944e-09
1.05965e-09
1.05986e-09
1.06007e-09
1.06029e-09
1.0605e-09
1.06071e-09
1.06092e-09
1.06114e-09
1.06135e-09
1.06157e-09
1.06178e-09
1.062e-09
1.06221e-09
1.06243e-09
1.06264e-09
1.06286e-09
1.06308e-09
1.0633e-09
1.06352e-09
1.06373e-09
1.06395e-09
1.06417e-09
1.06439e-09
1.06462e-09
1.06484e-09
1.06507e-09
1.05391e-09
1.0541e-09
1.05429e-09
1.05448e-09
1.05467e-09
1.05486e-09
1.05505e-09
1.05524e-09
1.05543e-09
1.05562e-09
1.05581e-09
1.05601e-09
1.0562e-09
1.05639e-09
1.05658e-09
1.05678e-09
1.05697e-09
1.05716e-09
1.05736e-09
1.05755e-09
1.05774e-09
1.05794e-09
1.05813e-09
1.05833e-09
1.05853e-09
1.05872e-09
1.05892e-09
1.05912e-09
1.05932e-09
1.05952e-09
1.05972e-09
1.05992e-09
1.06012e-09
1.06032e-09
1.06052e-09
1.06072e-09
1.06092e-09
1.06113e-09
1.06133e-09
1.06154e-09
1.06174e-09
1.06195e-09
1.06215e-09
1.06236e-09
1.06257e-09
1.06278e-09
1.06299e-09
1.0632e-09
1.0634e-09
1.06362e-09
1.05297e-09
1.05314e-09
1.05331e-09
1.05348e-09
1.05365e-09
1.05382e-09
1.054e-09
1.05417e-09
1.05434e-09
1.05451e-09
1.05469e-09
1.05486e-09
1.05503e-09
1.05521e-09
1.05538e-09
1.05555e-09
1.05573e-09
1.0559e-09
1.05608e-09
1.05626e-09
1.05643e-09
1.05661e-09
1.05678e-09
1.05696e-09
1.05714e-09
1.05732e-09
1.0575e-09
1.05767e-09
1.05785e-09
1.05803e-09
1.05821e-09
1.05839e-09
1.05858e-09
1.05876e-09
1.05894e-09
1.05912e-09
1.0593e-09
1.05949e-09
1.05967e-09
1.05986e-09
1.06004e-09
1.06023e-09
1.06041e-09
1.0606e-09
1.06079e-09
1.06098e-09
1.06117e-09
1.06136e-09
1.06155e-09
1.06174e-09
1.05187e-09
1.05202e-09
1.05217e-09
1.05232e-09
1.05248e-09
1.05263e-09
1.05278e-09
1.05293e-09
1.05308e-09
1.05323e-09
1.05338e-09
1.05353e-09
1.05368e-09
1.05384e-09
1.05399e-09
1.05414e-09
1.05429e-09
1.05445e-09
1.0546e-09
1.05475e-09
1.05491e-09
1.05506e-09
1.05522e-09
1.05537e-09
1.05553e-09
1.05569e-09
1.05584e-09
1.056e-09
1.05616e-09
1.05631e-09
1.05647e-09
1.05663e-09
1.05679e-09
1.05695e-09
1.05711e-09
1.05727e-09
1.05743e-09
1.0576e-09
1.05775e-09
1.05794e-09
1.05812e-09
1.0583e-09
1.05846e-09
1.05863e-09
1.0588e-09
1.05896e-09
1.05913e-09
1.0593e-09
1.05947e-09
1.05964e-09
1.05064e-09
1.05077e-09
1.0509e-09
1.05102e-09
1.05115e-09
1.05127e-09
1.0514e-09
1.05153e-09
1.05165e-09
1.05178e-09
1.05191e-09
1.05204e-09
1.05216e-09
1.05229e-09
1.05242e-09
1.05255e-09
1.05268e-09
1.05281e-09
1.05294e-09
1.05307e-09
1.0532e-09
1.05333e-09
1.05346e-09
1.05359e-09
1.05372e-09
1.05385e-09
1.05398e-09
1.05411e-09
1.05424e-09
1.05438e-09
1.05451e-09
1.05464e-09
1.05478e-09
1.05491e-09
1.05504e-09
1.05518e-09
1.05531e-09
1.05545e-09
1.05558e-09
1.05573e-09
1.05589e-09
1.05605e-09
1.05621e-09
1.05636e-09
1.0565e-09
1.05664e-09
1.05678e-09
1.05692e-09
1.05706e-09
1.0572e-09
1.0493e-09
1.04941e-09
1.04951e-09
1.04961e-09
1.04971e-09
1.04981e-09
1.04991e-09
1.05001e-09
1.05011e-09
1.05021e-09
1.05031e-09
1.05042e-09
1.05052e-09
1.05062e-09
1.05072e-09
1.05082e-09
1.05093e-09
1.05103e-09
1.05113e-09
1.05124e-09
1.05134e-09
1.05144e-09
1.05155e-09
1.05165e-09
1.05176e-09
1.05186e-09
1.05197e-09
1.05207e-09
1.05218e-09
1.05229e-09
1.0524e-09
1.05251e-09
1.05262e-09
1.05274e-09
1.05286e-09
1.05299e-09
1.05312e-09
1.05325e-09
1.05339e-09
1.05354e-09
1.05369e-09
1.05385e-09
1.05401e-09
1.05416e-09
1.0543e-09
1.05443e-09
1.05455e-09
1.05467e-09
1.05478e-09
1.05489e-09
1.04782e-09
1.04789e-09
1.04794e-09
1.048e-09
1.04805e-09
1.0481e-09
1.04816e-09
1.04823e-09
1.0483e-09
1.04837e-09
1.04845e-09
1.04852e-09
1.04859e-09
1.04866e-09
1.04874e-09
1.04881e-09
1.04888e-09
1.04896e-09
1.04903e-09
1.0491e-09
1.04918e-09
1.04925e-09
1.04932e-09
1.0494e-09
1.04947e-09
1.04955e-09
1.04962e-09
1.04969e-09
1.04977e-09
1.04984e-09
1.04992e-09
1.04999e-09
1.05007e-09
1.05015e-09
1.05023e-09
1.05032e-09
1.05041e-09
1.0505e-09
1.0506e-09
1.0507e-09
1.05081e-09
1.05093e-09
1.05105e-09
1.05116e-09
1.05128e-09
1.05138e-09
1.05149e-09
1.05158e-09
1.05166e-09
1.05175e-09
1.04494e-09
1.04494e-09
1.04495e-09
1.04495e-09
1.04496e-09
1.04497e-09
1.04498e-09
1.045e-09
1.04501e-09
1.04503e-09
1.04505e-09
1.04507e-09
1.04509e-09
1.04511e-09
1.04513e-09
1.04515e-09
1.04517e-09
1.04518e-09
1.0452e-09
1.04522e-09
1.04524e-09
1.04526e-09
1.04527e-09
1.04529e-09
1.0453e-09
1.04532e-09
1.04533e-09
1.04535e-09
1.04536e-09
1.04537e-09
1.04539e-09
1.0454e-09
1.04541e-09
1.04542e-09
1.04543e-09
1.04543e-09
1.04544e-09
1.04544e-09
1.04545e-09
1.04545e-09
1.04546e-09
1.04546e-09
1.04547e-09
1.04548e-09
1.0455e-09
1.04551e-09
1.04553e-09
1.04555e-09
1.04557e-09
1.04559e-09
1.06466e-09
1.06535e-09
1.06598e-09
1.06652e-09
1.06702e-09
1.06748e-09
1.06794e-09
1.06839e-09
1.06884e-09
1.0693e-09
1.06976e-09
1.07023e-09
1.0707e-09
1.07117e-09
1.07164e-09
1.07212e-09
1.0726e-09
1.07308e-09
1.07357e-09
1.07406e-09
1.07455e-09
1.07504e-09
1.07554e-09
1.07604e-09
1.07654e-09
1.07704e-09
1.07755e-09
1.07806e-09
1.07857e-09
1.07909e-09
1.0796e-09
1.08013e-09
1.08065e-09
1.08118e-09
1.08171e-09
1.08224e-09
1.08278e-09
1.08332e-09
1.08387e-09
1.08442e-09
1.08497e-09
1.08552e-09
1.08608e-09
1.08664e-09
1.0872e-09
1.08777e-09
1.08834e-09
1.08891e-09
1.08949e-09
1.09007e-09
1.09066e-09
1.09125e-09
1.09184e-09
1.09244e-09
1.09304e-09
1.09364e-09
1.09425e-09
1.09486e-09
1.09548e-09
1.0961e-09
1.09672e-09
1.09735e-09
1.09798e-09
1.09861e-09
1.09925e-09
1.09989e-09
1.10056e-09
1.10111e-09
1.10217e-09
1.06439e-09
1.06488e-09
1.06533e-09
1.06574e-09
1.06611e-09
1.06644e-09
1.06674e-09
1.06703e-09
1.06731e-09
1.06759e-09
1.06787e-09
1.06815e-09
1.06844e-09
1.06872e-09
1.06901e-09
1.0693e-09
1.06959e-09
1.06988e-09
1.07018e-09
1.07047e-09
1.07077e-09
1.07107e-09
1.07138e-09
1.07168e-09
1.07199e-09
1.0723e-09
1.07261e-09
1.07293e-09
1.07325e-09
1.07357e-09
1.0739e-09
1.07422e-09
1.07455e-09
1.07489e-09
1.07522e-09
1.07554e-09
1.07581e-09
1.07611e-09
1.07642e-09
1.07674e-09
1.07708e-09
1.07744e-09
1.0778e-09
1.07817e-09
1.07853e-09
1.07891e-09
1.07928e-09
1.07966e-09
1.08004e-09
1.08042e-09
1.08081e-09
1.0812e-09
1.08159e-09
1.08199e-09
1.08239e-09
1.0828e-09
1.08321e-09
1.08362e-09
1.08404e-09
1.08446e-09
1.08488e-09
1.08531e-09
1.08574e-09
1.08617e-09
1.08661e-09
1.08705e-09
1.08751e-09
1.08789e-09
1.08862e-09
1.06591e-09
1.06616e-09
1.06641e-09
1.06667e-09
1.06693e-09
1.0672e-09
1.06747e-09
1.06774e-09
1.06802e-09
1.06831e-09
1.0686e-09
1.06889e-09
1.06919e-09
1.06949e-09
1.06979e-09
1.0701e-09
1.07042e-09
1.07074e-09
1.07106e-09
1.07138e-09
1.0717e-09
1.07202e-09
1.07232e-09
1.07263e-09
1.07295e-09
1.07329e-09
1.07364e-09
1.07399e-09
1.07436e-09
1.07472e-09
1.07509e-09
1.07547e-09
1.07585e-09
1.07623e-09
1.07661e-09
1.07696e-09
1.0773e-09
1.0776e-09
1.07791e-09
1.07824e-09
1.07858e-09
1.07894e-09
1.07931e-09
1.07969e-09
1.08009e-09
1.0805e-09
1.08093e-09
1.08137e-09
1.08181e-09
1.08227e-09
1.08273e-09
1.08319e-09
1.08365e-09
1.08413e-09
1.0846e-09
1.08508e-09
1.08557e-09
1.08606e-09
1.08655e-09
1.08705e-09
1.08755e-09
1.08806e-09
1.08858e-09
1.08909e-09
1.08962e-09
1.09014e-09
1.09069e-09
1.09115e-09
1.09204e-09
1.06697e-09
1.06727e-09
1.06758e-09
1.06788e-09
1.0682e-09
1.06851e-09
1.06883e-09
1.06916e-09
1.06948e-09
1.06981e-09
1.07015e-09
1.07049e-09
1.07083e-09
1.07117e-09
1.07152e-09
1.07187e-09
1.07223e-09
1.07259e-09
1.07294e-09
1.0733e-09
1.07365e-09
1.074e-09
1.07435e-09
1.07469e-09
1.07502e-09
1.07535e-09
1.0757e-09
1.07605e-09
1.07644e-09
1.07684e-09
1.07724e-09
1.07766e-09
1.07807e-09
1.0785e-09
1.07892e-09
1.07935e-09
1.07979e-09
1.08022e-09
1.08066e-09
1.08111e-09
1.08156e-09
1.08201e-09
1.08248e-09
1.08294e-09
1.08342e-09
1.08389e-09
1.08437e-09
1.08486e-09
1.08535e-09
1.08585e-09
1.08635e-09
1.08685e-09
1.08736e-09
1.08788e-09
1.0884e-09
1.08892e-09
1.08945e-09
1.08999e-09
1.09053e-09
1.09107e-09
1.09162e-09
1.09218e-09
1.09274e-09
1.0933e-09
1.09388e-09
1.09445e-09
1.09505e-09
1.09555e-09
1.09651e-09
1.06723e-09
1.06752e-09
1.0678e-09
1.06809e-09
1.06838e-09
1.06867e-09
1.06897e-09
1.06927e-09
1.06958e-09
1.06989e-09
1.0702e-09
1.07052e-09
1.07084e-09
1.07116e-09
1.07149e-09
1.07182e-09
1.07215e-09
1.07249e-09
1.07283e-09
1.07317e-09
1.07351e-09
1.07385e-09
1.07418e-09
1.0745e-09
1.07482e-09
1.07512e-09
1.07543e-09
1.07575e-09
1.07608e-09
1.07642e-09
1.07678e-09
1.07716e-09
1.07755e-09
1.07795e-09
1.07835e-09
1.07876e-09
1.07917e-09
1.07959e-09
1.08001e-09
1.08044e-09
1.08087e-09
1.08131e-09
1.08175e-09
1.08219e-09
1.08264e-09
1.08309e-09
1.08355e-09
1.08401e-09
1.08448e-09
1.08495e-09
1.08543e-09
1.08591e-09
1.08639e-09
1.08688e-09
1.08738e-09
1.08788e-09
1.08838e-09
1.08889e-09
1.08941e-09
1.08993e-09
1.09045e-09
1.09098e-09
1.09152e-09
1.09206e-09
1.09261e-09
1.09315e-09
1.09373e-09
1.09421e-09
1.09513e-09
1.06697e-09
1.06726e-09
1.06756e-09
1.06786e-09
1.06816e-09
1.06846e-09
1.06877e-09
1.06908e-09
1.06939e-09
1.06971e-09
1.07003e-09
1.07036e-09
1.07068e-09
1.07102e-09
1.07135e-09
1.07169e-09
1.07203e-09
1.07237e-09
1.07272e-09
1.07308e-09
1.07343e-09
1.07378e-09
1.07414e-09
1.07449e-09
1.07484e-09
1.07519e-09
1.07554e-09
1.07588e-09
1.07621e-09
1.07655e-09
1.07689e-09
1.07723e-09
1.07759e-09
1.07795e-09
1.07833e-09
1.07872e-09
1.07912e-09
1.07953e-09
1.07995e-09
1.08038e-09
1.08082e-09
1.08126e-09
1.08171e-09
1.08216e-09
1.08261e-09
1.08307e-09
1.08354e-09
1.08401e-09
1.08448e-09
1.08496e-09
1.08544e-09
1.08593e-09
1.08642e-09
1.08692e-09
1.08742e-09
1.08793e-09
1.08844e-09
1.08896e-09
1.08948e-09
1.09001e-09
1.09054e-09
1.09108e-09
1.09162e-09
1.09217e-09
1.09272e-09
1.09327e-09
1.09386e-09
1.09434e-09
1.09527e-09
1.06639e-09
1.06666e-09
1.06694e-09
1.06722e-09
1.06751e-09
1.06779e-09
1.06808e-09
1.06838e-09
1.06867e-09
1.06897e-09
1.06927e-09
1.06958e-09
1.06989e-09
1.0702e-09
1.07051e-09
1.07083e-09
1.07115e-09
1.07148e-09
1.07181e-09
1.07214e-09
1.07248e-09
1.07281e-09
1.07316e-09
1.0735e-09
1.07384e-09
1.07418e-09
1.07452e-09
1.07485e-09
1.07518e-09
1.0755e-09
1.07582e-09
1.07615e-09
1.07648e-09
1.07682e-09
1.07717e-09
1.07752e-09
1.07789e-09
1.07826e-09
1.07865e-09
1.07904e-09
1.07945e-09
1.07987e-09
1.08029e-09
1.08071e-09
1.08114e-09
1.08157e-09
1.08201e-09
1.08245e-09
1.0829e-09
1.08335e-09
1.0838e-09
1.08426e-09
1.08473e-09
1.0852e-09
1.08567e-09
1.08615e-09
1.08663e-09
1.08712e-09
1.08762e-09
1.08811e-09
1.08862e-09
1.08912e-09
1.08964e-09
1.09015e-09
1.09068e-09
1.0912e-09
1.09175e-09
1.09221e-09
1.09309e-09
1.06531e-09
1.06558e-09
1.06585e-09
1.06613e-09
1.06641e-09
1.0667e-09
1.06698e-09
1.06727e-09
1.06755e-09
1.06785e-09
1.06814e-09
1.06844e-09
1.06874e-09
1.06904e-09
1.06935e-09
1.06965e-09
1.06997e-09
1.07028e-09
1.0706e-09
1.07092e-09
1.07125e-09
1.07158e-09
1.07191e-09
1.07224e-09
1.07258e-09
1.07292e-09
1.07326e-09
1.07361e-09
1.07395e-09
1.07429e-09
1.07464e-09
1.07498e-09
1.07532e-09
1.07566e-09
1.076e-09
1.07633e-09
1.07667e-09
1.07702e-09
1.07737e-09
1.07773e-09
1.07809e-09
1.07847e-09
1.07884e-09
1.07923e-09
1.07962e-09
1.08001e-09
1.08042e-09
1.08083e-09
1.08125e-09
1.08167e-09
1.0821e-09
1.08254e-09
1.08298e-09
1.08343e-09
1.08388e-09
1.08434e-09
1.08481e-09
1.08527e-09
1.08574e-09
1.08622e-09
1.0867e-09
1.08719e-09
1.08768e-09
1.08817e-09
1.08867e-09
1.08917e-09
1.0897e-09
1.09014e-09
1.09099e-09
1.06384e-09
1.06409e-09
1.06434e-09
1.06459e-09
1.06485e-09
1.0651e-09
1.06536e-09
1.06562e-09
1.06589e-09
1.06615e-09
1.06642e-09
1.0667e-09
1.06697e-09
1.06725e-09
1.06753e-09
1.06781e-09
1.0681e-09
1.06838e-09
1.06867e-09
1.06897e-09
1.06927e-09
1.06957e-09
1.06987e-09
1.07018e-09
1.07048e-09
1.0708e-09
1.07111e-09
1.07143e-09
1.07175e-09
1.07207e-09
1.07239e-09
1.07272e-09
1.07304e-09
1.07336e-09
1.07368e-09
1.07399e-09
1.07431e-09
1.07463e-09
1.07495e-09
1.07528e-09
1.07561e-09
1.07595e-09
1.0763e-09
1.07665e-09
1.077e-09
1.07736e-09
1.07773e-09
1.07811e-09
1.07849e-09
1.07888e-09
1.07927e-09
1.07968e-09
1.08008e-09
1.0805e-09
1.08091e-09
1.08134e-09
1.08176e-09
1.08219e-09
1.08263e-09
1.08306e-09
1.08351e-09
1.08395e-09
1.0844e-09
1.08486e-09
1.08532e-09
1.08578e-09
1.08627e-09
1.08667e-09
1.08744e-09
1.06195e-09
1.06218e-09
1.0624e-09
1.06264e-09
1.06287e-09
1.06311e-09
1.06337e-09
1.06363e-09
1.0639e-09
1.06416e-09
1.06441e-09
1.06467e-09
1.06492e-09
1.06518e-09
1.06543e-09
1.06569e-09
1.06595e-09
1.06622e-09
1.06648e-09
1.06675e-09
1.06702e-09
1.0673e-09
1.06758e-09
1.06786e-09
1.06814e-09
1.06842e-09
1.06871e-09
1.069e-09
1.0693e-09
1.0696e-09
1.0699e-09
1.0702e-09
1.07051e-09
1.07081e-09
1.07112e-09
1.07144e-09
1.07175e-09
1.07207e-09
1.07239e-09
1.07271e-09
1.07303e-09
1.07335e-09
1.07367e-09
1.074e-09
1.07432e-09
1.07465e-09
1.07498e-09
1.07531e-09
1.07565e-09
1.07599e-09
1.07634e-09
1.07669e-09
1.07704e-09
1.0774e-09
1.07776e-09
1.07813e-09
1.0785e-09
1.07888e-09
1.07926e-09
1.07965e-09
1.08004e-09
1.08044e-09
1.08084e-09
1.08124e-09
1.08166e-09
1.08207e-09
1.08251e-09
1.08287e-09
1.08358e-09
1.05982e-09
1.06002e-09
1.06022e-09
1.06042e-09
1.06062e-09
1.06082e-09
1.06103e-09
1.06124e-09
1.06145e-09
1.06166e-09
1.06188e-09
1.06209e-09
1.06231e-09
1.06253e-09
1.06276e-09
1.06298e-09
1.06321e-09
1.06344e-09
1.06367e-09
1.06391e-09
1.06414e-09
1.06438e-09
1.06462e-09
1.06487e-09
1.06511e-09
1.06536e-09
1.06561e-09
1.06586e-09
1.06612e-09
1.06638e-09
1.06664e-09
1.0669e-09
1.06716e-09
1.06743e-09
1.0677e-09
1.06798e-09
1.06825e-09
1.06853e-09
1.06881e-09
1.06909e-09
1.06938e-09
1.06966e-09
1.06995e-09
1.07024e-09
1.07053e-09
1.07081e-09
1.0711e-09
1.0714e-09
1.07169e-09
1.07199e-09
1.07229e-09
1.07259e-09
1.0729e-09
1.07321e-09
1.07353e-09
1.07385e-09
1.07418e-09
1.0745e-09
1.07484e-09
1.07517e-09
1.07551e-09
1.07586e-09
1.07621e-09
1.07656e-09
1.07692e-09
1.07728e-09
1.07765e-09
1.07797e-09
1.07858e-09
1.05735e-09
1.05752e-09
1.05769e-09
1.05786e-09
1.05803e-09
1.05821e-09
1.05838e-09
1.05856e-09
1.05874e-09
1.05894e-09
1.05915e-09
1.05936e-09
1.05956e-09
1.05976e-09
1.05995e-09
1.06014e-09
1.06033e-09
1.06053e-09
1.06073e-09
1.06092e-09
1.06112e-09
1.06133e-09
1.06153e-09
1.06174e-09
1.06195e-09
1.06216e-09
1.06237e-09
1.06258e-09
1.0628e-09
1.06302e-09
1.06324e-09
1.06346e-09
1.06369e-09
1.06392e-09
1.06415e-09
1.06438e-09
1.06461e-09
1.06485e-09
1.06509e-09
1.06533e-09
1.06557e-09
1.06582e-09
1.06607e-09
1.06632e-09
1.06657e-09
1.06683e-09
1.06709e-09
1.06735e-09
1.06761e-09
1.06788e-09
1.06815e-09
1.06842e-09
1.06869e-09
1.06897e-09
1.06925e-09
1.06953e-09
1.06982e-09
1.0701e-09
1.07039e-09
1.07069e-09
1.07098e-09
1.07128e-09
1.07158e-09
1.07189e-09
1.0722e-09
1.07251e-09
1.07283e-09
1.0731e-09
1.07362e-09
1.05502e-09
1.05515e-09
1.05528e-09
1.05542e-09
1.05556e-09
1.05569e-09
1.05583e-09
1.05597e-09
1.05612e-09
1.05626e-09
1.0564e-09
1.05655e-09
1.0567e-09
1.05685e-09
1.057e-09
1.05715e-09
1.0573e-09
1.05746e-09
1.05761e-09
1.05777e-09
1.05793e-09
1.05809e-09
1.05825e-09
1.05841e-09
1.05858e-09
1.05875e-09
1.05891e-09
1.05908e-09
1.05926e-09
1.05943e-09
1.0596e-09
1.05978e-09
1.05996e-09
1.06014e-09
1.06032e-09
1.06051e-09
1.06069e-09
1.06088e-09
1.06107e-09
1.06126e-09
1.06145e-09
1.06165e-09
1.06184e-09
1.06204e-09
1.06224e-09
1.06244e-09
1.06265e-09
1.06285e-09
1.06306e-09
1.06327e-09
1.06349e-09
1.0637e-09
1.06392e-09
1.06414e-09
1.06436e-09
1.06458e-09
1.0648e-09
1.06503e-09
1.06526e-09
1.06549e-09
1.06573e-09
1.06596e-09
1.0662e-09
1.06644e-09
1.06669e-09
1.06693e-09
1.06719e-09
1.0674e-09
1.06781e-09
1.05184e-09
1.05193e-09
1.05203e-09
1.05213e-09
1.05223e-09
1.05233e-09
1.05243e-09
1.05253e-09
1.05264e-09
1.05274e-09
1.05285e-09
1.05295e-09
1.05306e-09
1.05317e-09
1.05328e-09
1.05339e-09
1.0535e-09
1.05362e-09
1.05373e-09
1.05385e-09
1.05396e-09
1.05408e-09
1.0542e-09
1.05432e-09
1.05444e-09
1.05456e-09
1.05468e-09
1.05481e-09
1.05493e-09
1.05506e-09
1.05518e-09
1.05531e-09
1.05544e-09
1.05557e-09
1.0557e-09
1.05583e-09
1.05597e-09
1.0561e-09
1.05624e-09
1.05638e-09
1.05651e-09
1.05665e-09
1.05679e-09
1.05694e-09
1.05708e-09
1.05722e-09
1.05737e-09
1.05751e-09
1.05766e-09
1.05781e-09
1.05796e-09
1.05811e-09
1.05827e-09
1.05842e-09
1.05858e-09
1.05873e-09
1.05889e-09
1.05905e-09
1.05921e-09
1.05937e-09
1.05954e-09
1.0597e-09
1.05987e-09
1.06003e-09
1.0602e-09
1.06037e-09
1.06055e-09
1.0607e-09
1.06098e-09
1.04562e-09
1.04567e-09
1.04573e-09
1.04579e-09
1.04585e-09
1.04591e-09
1.04597e-09
1.04603e-09
1.04609e-09
1.04615e-09
1.04621e-09
1.04626e-09
1.04632e-09
1.04637e-09
1.04642e-09
1.04646e-09
1.04649e-09
1.04652e-09
1.04654e-09
1.04656e-09
1.04658e-09
1.04659e-09
1.0466e-09
1.0466e-09
1.0466e-09
1.0466e-09
1.04661e-09
1.04661e-09
1.04661e-09
1.04662e-09
1.04663e-09
1.04664e-09
1.04665e-09
1.04666e-09
1.04667e-09
1.04669e-09
1.0467e-09
1.04672e-09
1.04673e-09
1.04675e-09
1.04676e-09
1.04678e-09
1.0468e-09
1.04682e-09
1.04683e-09
1.04685e-09
1.04687e-09
1.04689e-09
1.0469e-09
1.04692e-09
1.04694e-09
1.04696e-09
1.04697e-09
1.04699e-09
1.04701e-09
1.04702e-09
1.04704e-09
1.04706e-09
1.04707e-09
1.04709e-09
1.0471e-09
1.04712e-09
1.04713e-09
1.04715e-09
1.04716e-09
1.04717e-09
1.04719e-09
1.04721e-09
1.04721e-09
1.04477e-09
1.04607e-09
1.04723e-09
1.04828e-09
1.04922e-09
1.05006e-09
1.05082e-09
1.0515e-09
1.05211e-09
1.05265e-09
1.05314e-09
1.05358e-09
1.05396e-09
1.05435e-09
1.0546e-09
1.0448e-09
1.04613e-09
1.04733e-09
1.04841e-09
1.04938e-09
1.05026e-09
1.05104e-09
1.05174e-09
1.05237e-09
1.05294e-09
1.05345e-09
1.0539e-09
1.05431e-09
1.05469e-09
1.05499e-09
1.04481e-09
1.04618e-09
1.04741e-09
1.04851e-09
1.04951e-09
1.0504e-09
1.0512e-09
1.05193e-09
1.05257e-09
1.05316e-09
1.05368e-09
1.05415e-09
1.05458e-09
1.05496e-09
1.05529e-09
1.04482e-09
1.0462e-09
1.04744e-09
1.04856e-09
1.04957e-09
1.05047e-09
1.05129e-09
1.05202e-09
1.05268e-09
1.05328e-09
1.05381e-09
1.05429e-09
1.05472e-09
1.05512e-09
1.05546e-09
1.04482e-09
1.0462e-09
1.04744e-09
1.04856e-09
1.04957e-09
1.05048e-09
1.05129e-09
1.05203e-09
1.05269e-09
1.05329e-09
1.05382e-09
1.05431e-09
1.05474e-09
1.05514e-09
1.05548e-09
1.04481e-09
1.04617e-09
1.04739e-09
1.04849e-09
1.04948e-09
1.05038e-09
1.05119e-09
1.05191e-09
1.05257e-09
1.05316e-09
1.05369e-09
1.05417e-09
1.0546e-09
1.05499e-09
1.05533e-09
1.04479e-09
1.0461e-09
1.04728e-09
1.04835e-09
1.04931e-09
1.05018e-09
1.05096e-09
1.05166e-09
1.0523e-09
1.05287e-09
1.05339e-09
1.05385e-09
1.05427e-09
1.05465e-09
1.05499e-09
1.04475e-09
1.046e-09
1.04712e-09
1.04813e-09
1.04905e-09
1.04987e-09
1.05061e-09
1.05128e-09
1.05188e-09
1.05243e-09
1.05292e-09
1.05336e-09
1.05376e-09
1.05412e-09
1.05444e-09
1.0447e-09
1.04586e-09
1.0469e-09
1.04784e-09
1.04869e-09
1.04945e-09
1.05014e-09
1.05076e-09
1.05132e-09
1.05183e-09
1.05229e-09
1.0527e-09
1.05307e-09
1.0534e-09
1.0537e-09
1.04464e-09
1.04569e-09
1.04663e-09
1.04748e-09
1.04825e-09
1.04894e-09
1.04956e-09
1.05012e-09
1.05063e-09
1.05109e-09
1.0515e-09
1.05187e-09
1.0522e-09
1.05251e-09
1.05278e-09
1.04458e-09
1.04549e-09
1.04632e-09
1.04706e-09
1.04773e-09
1.04834e-09
1.04889e-09
1.04938e-09
1.04982e-09
1.05022e-09
1.05058e-09
1.05091e-09
1.0512e-09
1.05147e-09
1.0517e-09
1.0445e-09
1.04527e-09
1.04597e-09
1.04659e-09
1.04716e-09
1.04767e-09
1.04813e-09
1.04854e-09
1.04892e-09
1.04925e-09
1.04956e-09
1.04983e-09
1.05008e-09
1.0503e-09
1.0505e-09
1.04442e-09
1.04503e-09
1.04558e-09
1.04608e-09
1.04653e-09
1.04694e-09
1.0473e-09
1.04763e-09
1.04793e-09
1.0482e-09
1.04844e-09
1.04865e-09
1.04885e-09
1.04903e-09
1.04919e-09
1.04432e-09
1.04476e-09
1.04515e-09
1.04551e-09
1.04583e-09
1.04612e-09
1.04639e-09
1.04662e-09
1.04684e-09
1.04703e-09
1.0472e-09
1.04736e-09
1.0475e-09
1.04763e-09
1.04774e-09
1.04418e-09
1.04435e-09
1.04451e-09
1.04465e-09
1.04476e-09
1.04484e-09
1.04488e-09
1.04491e-09
1.04491e-09
1.04492e-09
1.04492e-09
1.04493e-09
1.04493e-09
1.04493e-09
1.04494e-09
1.05483e-09
1.05501e-09
1.05518e-09
1.05535e-09
1.05548e-09
1.05557e-09
1.05564e-09
1.05567e-09
1.05569e-09
1.0557e-09
1.05572e-09
1.05574e-09
1.05578e-09
1.05585e-09
1.05595e-09
1.05607e-09
1.05622e-09
1.05641e-09
1.05661e-09
1.05684e-09
1.05708e-09
1.05733e-09
1.05758e-09
1.05783e-09
1.05805e-09
1.05826e-09
1.05847e-09
1.05867e-09
1.05888e-09
1.05907e-09
1.05927e-09
1.05947e-09
1.05966e-09
1.05985e-09
1.06004e-09
1.06024e-09
1.06043e-09
1.06063e-09
1.06083e-09
1.06103e-09
1.06124e-09
1.06145e-09
1.06167e-09
1.0619e-09
1.06213e-09
1.06238e-09
1.06262e-09
1.06292e-09
1.06307e-09
1.06355e-09
1.05527e-09
1.05549e-09
1.05572e-09
1.05594e-09
1.05617e-09
1.05639e-09
1.05662e-09
1.05684e-09
1.05707e-09
1.05729e-09
1.05751e-09
1.05772e-09
1.05793e-09
1.05812e-09
1.05831e-09
1.05848e-09
1.05865e-09
1.05881e-09
1.05897e-09
1.05912e-09
1.05926e-09
1.0594e-09
1.05954e-09
1.05968e-09
1.05982e-09
1.05995e-09
1.06009e-09
1.06023e-09
1.06037e-09
1.0605e-09
1.06064e-09
1.06079e-09
1.06093e-09
1.06107e-09
1.06121e-09
1.06135e-09
1.0615e-09
1.06164e-09
1.06179e-09
1.06193e-09
1.06207e-09
1.06221e-09
1.06235e-09
1.0625e-09
1.06264e-09
1.06277e-09
1.06291e-09
1.06311e-09
1.06336e-09
1.0637e-09
1.05557e-09
1.05581e-09
1.05604e-09
1.05626e-09
1.05649e-09
1.05672e-09
1.05694e-09
1.05717e-09
1.05739e-09
1.05761e-09
1.05783e-09
1.05806e-09
1.05828e-09
1.0585e-09
1.05873e-09
1.05895e-09
1.05918e-09
1.0594e-09
1.05962e-09
1.05985e-09
1.06007e-09
1.06029e-09
1.0605e-09
1.06072e-09
1.06093e-09
1.06114e-09
1.06134e-09
1.06155e-09
1.06175e-09
1.06195e-09
1.06215e-09
1.06234e-09
1.06253e-09
1.06273e-09
1.06291e-09
1.0631e-09
1.06329e-09
1.06347e-09
1.06365e-09
1.06383e-09
1.06401e-09
1.06418e-09
1.06436e-09
1.06453e-09
1.0647e-09
1.06487e-09
1.06503e-09
1.06519e-09
1.06534e-09
1.0655e-09
1.05574e-09
1.05598e-09
1.05621e-09
1.05644e-09
1.05667e-09
1.0569e-09
1.05713e-09
1.05736e-09
1.05759e-09
1.05782e-09
1.05805e-09
1.05828e-09
1.0585e-09
1.05873e-09
1.05896e-09
1.05918e-09
1.0594e-09
1.05963e-09
1.05985e-09
1.06007e-09
1.06029e-09
1.06051e-09
1.06073e-09
1.06095e-09
1.06117e-09
1.06139e-09
1.06161e-09
1.06183e-09
1.06204e-09
1.06226e-09
1.06248e-09
1.06269e-09
1.06291e-09
1.06313e-09
1.06334e-09
1.06356e-09
1.06377e-09
1.06399e-09
1.0642e-09
1.06441e-09
1.06462e-09
1.06484e-09
1.06505e-09
1.06526e-09
1.06547e-09
1.06568e-09
1.06589e-09
1.06609e-09
1.0663e-09
1.06652e-09
1.05577e-09
1.056e-09
1.05623e-09
1.05646e-09
1.05669e-09
1.05692e-09
1.05714e-09
1.05737e-09
1.0576e-09
1.05783e-09