/*--------------------------------*- C++ -*----------------------------------*\
| =========                 |                                                 |
| \\      /  F ield         | OpenFOAM: The Open Source CFD Toolbox           |
|  \\    /   O peration     | Version:  2412                                  |
|   \\  /    A nd           | Website:  www.openfoam.com                      |
|    \\/     M anipulation  |                                                 |
\*---------------------------------------------------------------------------*/
FoamFile
{
    version     2.0;
    format      ascii;
    arch        "LSB;label=32;scalar=64";
    class       volScalarField;
    location    "1000";
    object      nuTilda;
}
// * * * * * * * * * * * * * * * * * * * * * * * * * * * * * * * * * * * * * //

dimensions      [0 2 -1 0 0 0 0];

internalField   nonuniform List<scalar> 
14620
(
5.84094e-06
5.84273e-06
5.84435e-06
5.8458e-06
5.8471e-06
5.84826e-06
5.84931e-06
5.85024e-06
5.85108e-06
5.85184e-06
5.85251e-06
5.85312e-06
5.85365e-06
5.85418e-06
5.85453e-06
5.84097e-06
5.84282e-06
5.84449e-06
5.84598e-06
5.84733e-06
5.84853e-06
5.84961e-06
5.85058e-06
5.85146e-06
5.85224e-06
5.85294e-06
5.85357e-06
5.85413e-06
5.85465e-06
5.85508e-06
5.84099e-06
5.84289e-06
5.84459e-06
5.84612e-06
5.8475e-06
5.84874e-06
5.84985e-06
5.85085e-06
5.85174e-06
5.85255e-06
5.85327e-06
5.85393e-06
5.85451e-06
5.85505e-06
5.8555e-06
5.841e-06
5.84292e-06
5.84464e-06
5.84619e-06
5.84759e-06
5.84884e-06
5.84997e-06
5.85099e-06
5.8519e-06
5.85272e-06
5.85346e-06
5.85413e-06
5.85472e-06
5.85527e-06
5.85574e-06
5.84101e-06
5.84292e-06
5.84465e-06
5.8462e-06
5.84759e-06
5.84885e-06
5.84998e-06
5.851e-06
5.85192e-06
5.85274e-06
5.85348e-06
5.85415e-06
5.85475e-06
5.8553e-06
5.85578e-06
5.84099e-06
5.84288e-06
5.84458e-06
5.84611e-06
5.84748e-06
5.84872e-06
5.84984e-06
5.85084e-06
5.85175e-06
5.85257e-06
5.8533e-06
5.85397e-06
5.85456e-06
5.8551e-06
5.85558e-06
5.84096e-06
5.84279e-06
5.84443e-06
5.84591e-06
5.84725e-06
5.84845e-06
5.84953e-06
5.85051e-06
5.85139e-06
5.85218e-06
5.85289e-06
5.85354e-06
5.85412e-06
5.85465e-06
5.85511e-06
5.84091e-06
5.84264e-06
5.84421e-06
5.84561e-06
5.84688e-06
5.84802e-06
5.84905e-06
5.84998e-06
5.85082e-06
5.85157e-06
5.85225e-06
5.85287e-06
5.85342e-06
5.85392e-06
5.85436e-06
5.84085e-06
5.84246e-06
5.8439e-06
5.84521e-06
5.84639e-06
5.84745e-06
5.84841e-06
5.84927e-06
5.85005e-06
5.85075e-06
5.85138e-06
5.85195e-06
5.85246e-06
5.85293e-06
5.85334e-06
5.84077e-06
5.84222e-06
5.84353e-06
5.84471e-06
5.84578e-06
5.84674e-06
5.8476e-06
5.84838e-06
5.84909e-06
5.84972e-06
5.85029e-06
5.85081e-06
5.85127e-06
5.8517e-06
5.85207e-06
5.84067e-06
5.84195e-06
5.8431e-06
5.84413e-06
5.84507e-06
5.84591e-06
5.84667e-06
5.84735e-06
5.84797e-06
5.84853e-06
5.84903e-06
5.84948e-06
5.84989e-06
5.85026e-06
5.85059e-06
5.84057e-06
5.84164e-06
5.84261e-06
5.84348e-06
5.84427e-06
5.84498e-06
5.84562e-06
5.84619e-06
5.84671e-06
5.84718e-06
5.8476e-06
5.84799e-06
5.84833e-06
5.84864e-06
5.84892e-06
5.84045e-06
5.8413e-06
5.84207e-06
5.84277e-06
5.84339e-06
5.84396e-06
5.84447e-06
5.84493e-06
5.84534e-06
5.84571e-06
5.84605e-06
5.84635e-06
5.84663e-06
5.84687e-06
5.8471e-06
5.84032e-06
5.84093e-06
5.84148e-06
5.84198e-06
5.84243e-06
5.84283e-06
5.8432e-06
5.84353e-06
5.84382e-06
5.84409e-06
5.84433e-06
5.84455e-06
5.84475e-06
5.84493e-06
5.84509e-06
5.84012e-06
5.84036e-06
5.84058e-06
5.84078e-06
5.84093e-06
5.84104e-06
5.8411e-06
5.84113e-06
5.84114e-06
5.84115e-06
5.84116e-06
5.84116e-06
5.84117e-06
5.84117e-06
5.84118e-06
5.85485e-06
5.8551e-06
5.85534e-06
5.85557e-06
5.85575e-06
5.85588e-06
5.85597e-06
5.85603e-06
5.85606e-06
5.85608e-06
5.8561e-06
5.85614e-06
5.8562e-06
5.8563e-06
5.85644e-06
5.85661e-06
5.85684e-06
5.8571e-06
5.8574e-06
5.85772e-06
5.85807e-06
5.85842e-06
5.85878e-06
5.85913e-06
5.85945e-06
5.85976e-06
5.86006e-06
5.86036e-06
5.86066e-06
5.86095e-06
5.86124e-06
5.86153e-06
5.86181e-06
5.8621e-06
5.86239e-06
5.86268e-06
5.86297e-06
5.86327e-06
5.86357e-06
5.86387e-06
5.86419e-06
5.86451e-06
5.86484e-06
5.86519e-06
5.86554e-06
5.86591e-06
5.86627e-06
5.86672e-06
5.86695e-06
5.86766e-06
5.85546e-06
5.85577e-06
5.85609e-06
5.8564e-06
5.85672e-06
5.85703e-06
5.85735e-06
5.85767e-06
5.85798e-06
5.8583e-06
5.8586e-06
5.8589e-06
5.85919e-06
5.85946e-06
5.85973e-06
5.85998e-06
5.86022e-06
5.86045e-06
5.86067e-06
5.86089e-06
5.86109e-06
5.8613e-06
5.8615e-06
5.8617e-06
5.8619e-06
5.86209e-06
5.86229e-06
5.86249e-06
5.86269e-06
5.86289e-06
5.8631e-06
5.8633e-06
5.86351e-06
5.86372e-06
5.86393e-06
5.86414e-06
5.86435e-06
5.86456e-06
5.86477e-06
5.86498e-06
5.86519e-06
5.8654e-06
5.86561e-06
5.86582e-06
5.86603e-06
5.86624e-06
5.86645e-06
5.86674e-06
5.86709e-06
5.86758e-06
5.85589e-06
5.85622e-06
5.85654e-06
5.85686e-06
5.85717e-06
5.85749e-06
5.85781e-06
5.85812e-06
5.85843e-06
5.85874e-06
5.85906e-06
5.85937e-06
5.85968e-06
5.86e-06
5.86031e-06
5.86063e-06
5.86095e-06
5.86126e-06
5.86158e-06
5.8619e-06
5.86221e-06
5.86252e-06
5.86283e-06
5.86313e-06
5.86343e-06
5.86373e-06
5.86402e-06
5.86432e-06
5.8646e-06
5.86489e-06
5.86517e-06
5.86545e-06
5.86572e-06
5.866e-06
5.86627e-06
5.86654e-06
5.8668e-06
5.86706e-06
5.86732e-06
5.86758e-06
5.86784e-06
5.86809e-06
5.86834e-06
5.86858e-06
5.86883e-06
5.86907e-06
5.8693e-06
5.86953e-06
5.86975e-06
5.86998e-06
5.85614e-06
5.85646e-06
5.85679e-06
5.85711e-06
5.85743e-06
5.85775e-06
5.85807e-06
5.85839e-06
5.85872e-06
5.85904e-06
5.85936e-06
5.85968e-06
5.86e-06
5.86032e-06
5.86064e-06
5.86095e-06
5.86127e-06
5.86158e-06
5.8619e-06
5.86221e-06
5.86252e-06
5.86283e-06
5.86314e-06
5.86346e-06
5.86377e-06
5.86408e-06
5.86439e-06
5.8647e-06
5.865e-06
5.86531e-06
5.86562e-06
5.86593e-06
5.86624e-06
5.86654e-06
5.86685e-06
5.86716e-06
5.86746e-06
5.86777e-06
5.86807e-06
5.86837e-06
5.86867e-06
5.86898e-06
5.86928e-06
5.86958e-06
5.86988e-06
5.87017e-06
5.87047e-06
5.87076e-06
5.87106e-06
5.87137e-06
5.85618e-06
5.8565e-06
5.85682e-06
5.85714e-06
5.85746e-06
5.85778e-06
5.8581e-06
5.85842e-06
5.85874e-06
5.85905e-06
5.85937e-06
5.85969e-06
5.86001e-06
5.86032e-06
5.86064e-06
5.86096e-06
5.86128e-06
5.86159e-06
5.86191e-06
5.86223e-06
5.86254e-06
5.86286e-06
5.86318e-06
5.8635e-06
5.86381e-06
5.86413e-06
5.86445e-06
5.86476e-06
5.86508e-06
5.8654e-06
5.86571e-06
5.86603e-06
5.86635e-06
5.86666e-06
5.86698e-06
5.8673e-06
5.86761e-06
5.86793e-06
5.86825e-06
5.86856e-06
5.86888e-06
5.8692e-06
5.86951e-06
5.86983e-06
5.87015e-06
5.87047e-06
5.87078e-06
5.8711e-06
5.87142e-06
5.87174e-06
5.85597e-06
5.85629e-06
5.8566e-06
5.85691e-06
5.85723e-06
5.85754e-06
5.85785e-06
5.85817e-06
5.85848e-06
5.85879e-06
5.85911e-06
5.85942e-06
5.85974e-06
5.86005e-06
5.86037e-06
5.86068e-06
5.86099e-06
5.86131e-06
5.86162e-06
5.86194e-06
5.86225e-06
5.86256e-06
5.86288e-06
5.86319e-06
5.8635e-06
5.86382e-06
5.86413e-06
5.86444e-06
5.86476e-06
5.86507e-06
5.86538e-06
5.8657e-06
5.86601e-06
5.86632e-06
5.86664e-06
5.86695e-06
5.86726e-06
5.86758e-06
5.86789e-06
5.86821e-06
5.86852e-06
5.86883e-06
5.86915e-06
5.86947e-06
5.86978e-06
5.8701e-06
5.87041e-06
5.87073e-06
5.87104e-06
5.87137e-06
5.85549e-06
5.85579e-06
5.85609e-06
5.8564e-06
5.8567e-06
5.857e-06
5.8573e-06
5.8576e-06
5.85791e-06
5.85821e-06
5.85851e-06
5.85881e-06
5.85912e-06
5.85942e-06
5.85972e-06
5.86002e-06
5.86033e-06
5.86063e-06
5.86094e-06
5.86124e-06
5.86155e-06
5.86185e-06
5.86216e-06
5.86246e-06
5.86277e-06
5.86308e-06
5.86338e-06
5.86369e-06
5.864e-06
5.86431e-06
5.86462e-06
5.86493e-06
5.86524e-06
5.86555e-06
5.86586e-06
5.86617e-06
5.86648e-06
5.86679e-06
5.86711e-06
5.86742e-06
5.86773e-06
5.86805e-06
5.86836e-06
5.86868e-06
5.86899e-06
5.86931e-06
5.86963e-06
5.86994e-06
5.87026e-06
5.87058e-06
5.85472e-06
5.85501e-06
5.85529e-06
5.85558e-06
5.85586e-06
5.85615e-06
5.85643e-06
5.85672e-06
5.85701e-06
5.85729e-06
5.85758e-06
5.85787e-06
5.85815e-06
5.85844e-06
5.85873e-06
5.85902e-06
5.85931e-06
5.8596e-06
5.85989e-06
5.86018e-06
5.86047e-06
5.86076e-06
5.86105e-06
5.86134e-06
5.86163e-06
5.86193e-06
5.86222e-06
5.86251e-06
5.86281e-06
5.8631e-06
5.8634e-06
5.86369e-06
5.86399e-06
5.86428e-06
5.86458e-06
5.86488e-06
5.86517e-06
5.86547e-06
5.86577e-06
5.86607e-06
5.86637e-06
5.86667e-06
5.86697e-06
5.86727e-06
5.86758e-06
5.86788e-06
5.86818e-06
5.86849e-06
5.86879e-06
5.86911e-06
5.85367e-06
5.85394e-06
5.8542e-06
5.85447e-06
5.85473e-06
5.855e-06
5.85526e-06
5.85553e-06
5.85579e-06
5.85606e-06
5.85632e-06
5.85659e-06
5.85685e-06
5.85712e-06
5.85739e-06
5.85765e-06
5.85792e-06
5.85819e-06
5.85846e-06
5.85873e-06
5.859e-06
5.85927e-06
5.85954e-06
5.85981e-06
5.86008e-06
5.86035e-06
5.86063e-06
5.8609e-06
5.86117e-06
5.86145e-06
5.86172e-06
5.862e-06
5.86228e-06
5.86256e-06
5.86283e-06
5.86311e-06
5.86339e-06
5.86367e-06
5.86396e-06
5.86424e-06
5.86452e-06
5.86481e-06
5.86509e-06
5.86538e-06
5.86566e-06
5.86595e-06
5.86624e-06
5.86653e-06
5.86682e-06
5.86712e-06
5.85237e-06
5.85261e-06
5.85285e-06
5.85308e-06
5.85332e-06
5.85356e-06
5.8538e-06
5.85404e-06
5.85428e-06
5.85451e-06
5.85475e-06
5.85499e-06
5.85524e-06
5.85548e-06
5.85572e-06
5.85596e-06
5.8562e-06
5.85645e-06
5.85669e-06
5.85693e-06
5.85718e-06
5.85742e-06
5.85767e-06
5.85791e-06
5.85816e-06
5.8584e-06
5.85865e-06
5.8589e-06
5.85915e-06
5.8594e-06
5.85965e-06
5.8599e-06
5.86015e-06
5.8604e-06
5.86065e-06
5.8609e-06
5.86116e-06
5.86141e-06
5.86166e-06
5.86192e-06
5.86218e-06
5.86243e-06
5.86269e-06
5.86295e-06
5.86321e-06
5.86347e-06
5.86373e-06
5.86399e-06
5.86426e-06
5.86452e-06
5.85085e-06
5.85106e-06
5.85127e-06
5.85148e-06
5.85168e-06
5.85189e-06
5.8521e-06
5.85231e-06
5.85252e-06
5.85273e-06
5.85294e-06
5.85315e-06
5.85336e-06
5.85358e-06
5.85379e-06
5.854e-06
5.85421e-06
5.85442e-06
5.85464e-06
5.85485e-06
5.85506e-06
5.85528e-06
5.85549e-06
5.85571e-06
5.85593e-06
5.85614e-06
5.85636e-06
5.85658e-06
5.8568e-06
5.85701e-06
5.85723e-06
5.85745e-06
5.85768e-06
5.8579e-06
5.85812e-06
5.85834e-06
5.85857e-06
5.85879e-06
5.85901e-06
5.85926e-06
5.85952e-06
5.85976e-06
5.85999e-06
5.86022e-06
5.86045e-06
5.86068e-06
5.86091e-06
5.86115e-06
5.86138e-06
5.86162e-06
5.84914e-06
5.84931e-06
5.84949e-06
5.84966e-06
5.84984e-06
5.85001e-06
5.85019e-06
5.85037e-06
5.85054e-06
5.85072e-06
5.8509e-06
5.85107e-06
5.85125e-06
5.85143e-06
5.85161e-06
5.85179e-06
5.85197e-06
5.85214e-06
5.85232e-06
5.8525e-06
5.85269e-06
5.85287e-06
5.85305e-06
5.85323e-06
5.85341e-06
5.85359e-06
5.85378e-06
5.85396e-06
5.85414e-06
5.85433e-06
5.85451e-06
5.8547e-06
5.85488e-06
5.85507e-06
5.85525e-06
5.85544e-06
5.85563e-06
5.85582e-06
5.856e-06
5.8562e-06
5.85642e-06
5.85665e-06
5.85687e-06
5.85707e-06
5.85727e-06
5.85746e-06
5.85766e-06
5.85785e-06
5.85804e-06
5.85824e-06
5.84727e-06
5.84741e-06
5.84755e-06
5.84769e-06
5.84783e-06
5.84797e-06
5.84811e-06
5.84825e-06
5.84839e-06
5.84854e-06
5.84868e-06
5.84882e-06
5.84896e-06
5.8491e-06
5.84925e-06
5.84939e-06
5.84953e-06
5.84967e-06
5.84982e-06
5.84996e-06
5.85011e-06
5.85025e-06
5.8504e-06
5.85054e-06
5.85069e-06
5.85083e-06
5.85098e-06
5.85112e-06
5.85127e-06
5.85142e-06
5.85157e-06
5.85173e-06
5.85189e-06
5.85205e-06
5.85222e-06
5.85239e-06
5.85257e-06
5.85276e-06
5.85296e-06
5.85316e-06
5.85338e-06
5.8536e-06
5.85381e-06
5.85402e-06
5.85421e-06
5.8544e-06
5.85457e-06
5.85473e-06
5.85489e-06
5.85505e-06
5.84521e-06
5.8453e-06
5.84538e-06
5.84545e-06
5.84552e-06
5.8456e-06
5.84568e-06
5.84577e-06
5.84587e-06
5.84597e-06
5.84607e-06
5.84618e-06
5.84628e-06
5.84638e-06
5.84648e-06
5.84658e-06
5.84668e-06
5.84679e-06
5.84689e-06
5.84699e-06
5.84709e-06
5.8472e-06
5.8473e-06
5.8474e-06
5.8475e-06
5.84761e-06
5.84771e-06
5.84781e-06
5.84792e-06
5.84802e-06
5.84813e-06
5.84823e-06
5.84834e-06
5.84845e-06
5.84857e-06
5.84868e-06
5.84881e-06
5.84894e-06
5.84907e-06
5.84922e-06
5.84937e-06
5.84953e-06
5.8497e-06
5.84986e-06
5.85002e-06
5.85017e-06
5.85031e-06
5.85044e-06
5.85056e-06
5.85067e-06
5.84118e-06
5.84118e-06
5.84119e-06
5.8412e-06
5.84121e-06
5.84123e-06
5.84124e-06
5.84126e-06
5.84128e-06
5.84131e-06
5.84134e-06
5.84136e-06
5.84139e-06
5.84142e-06
5.84144e-06
5.84147e-06
5.8415e-06
5.84152e-06
5.84155e-06
5.84157e-06
5.8416e-06
5.84162e-06
5.84165e-06
5.84167e-06
5.84169e-06
5.84171e-06
5.84173e-06
5.84175e-06
5.84177e-06
5.84179e-06
5.8418e-06
5.84182e-06
5.84183e-06
5.84185e-06
5.84186e-06
5.84187e-06
5.84188e-06
5.84189e-06
5.84189e-06
5.8419e-06
5.8419e-06
5.84191e-06
5.84193e-06
5.84194e-06
5.84196e-06
5.84198e-06
5.842e-06
5.84203e-06
5.84206e-06
5.84209e-06
5.86855e-06
5.86951e-06
5.87036e-06
5.87112e-06
5.8718e-06
5.87244e-06
5.87306e-06
5.87368e-06
5.87431e-06
5.87494e-06
5.87557e-06
5.87621e-06
5.87685e-06
5.8775e-06
5.87815e-06
5.87881e-06
5.87947e-06
5.88013e-06
5.88079e-06
5.88146e-06
5.88213e-06
5.88281e-06
5.88349e-06
5.88417e-06
5.88486e-06
5.88554e-06
5.88624e-06
5.88693e-06
5.88763e-06
5.88833e-06
5.88904e-06
5.88975e-06
5.89046e-06
5.89118e-06
5.8919e-06
5.89263e-06
5.89336e-06
5.8941e-06
5.89485e-06
5.89559e-06
5.89634e-06
5.89709e-06
5.89785e-06
5.89861e-06
5.89937e-06
5.90014e-06
5.90092e-06
5.90169e-06
5.90248e-06
5.90327e-06
5.90406e-06
5.90486e-06
5.90566e-06
5.90647e-06
5.90728e-06
5.90809e-06
5.90892e-06
5.90974e-06
5.91057e-06
5.91141e-06
5.91225e-06
5.91309e-06
5.91394e-06
5.91479e-06
5.91566e-06
5.91651e-06
5.91741e-06
5.91815e-06
5.91958e-06
5.86818e-06
5.86885e-06
5.86947e-06
5.87004e-06
5.87054e-06
5.871e-06
5.87142e-06
5.87181e-06
5.8722e-06
5.87259e-06
5.87297e-06
5.87336e-06
5.87375e-06
5.87414e-06
5.87454e-06
5.87493e-06
5.87533e-06
5.87573e-06
5.87614e-06
5.87655e-06
5.87696e-06
5.87737e-06
5.87779e-06
5.87821e-06
5.87863e-06
5.87905e-06
5.87948e-06
5.87992e-06
5.88035e-06
5.88079e-06
5.88124e-06
5.88169e-06
5.88214e-06
5.8826e-06
5.88305e-06
5.88348e-06
5.88386e-06
5.88426e-06
5.88469e-06
5.88513e-06
5.8856e-06
5.88608e-06
5.88658e-06
5.88708e-06
5.88758e-06
5.88809e-06
5.8886e-06
5.88911e-06
5.88963e-06
5.89015e-06
5.89068e-06
5.89121e-06
5.89175e-06
5.89229e-06
5.89284e-06
5.89339e-06
5.89395e-06
5.89451e-06
5.89507e-06
5.89564e-06
5.89622e-06
5.8968e-06
5.89739e-06
5.89798e-06
5.89857e-06
5.89917e-06
5.89979e-06
5.90031e-06
5.9013e-06
5.87028e-06
5.87062e-06
5.87097e-06
5.87132e-06
5.87168e-06
5.87205e-06
5.87242e-06
5.8728e-06
5.87318e-06
5.87357e-06
5.87397e-06
5.87437e-06
5.87478e-06
5.87519e-06
5.87561e-06
5.87604e-06
5.87647e-06
5.87691e-06
5.87735e-06
5.87779e-06
5.87823e-06
5.87867e-06
5.87908e-06
5.8795e-06
5.87994e-06
5.8804e-06
5.88088e-06
5.88137e-06
5.88187e-06
5.88237e-06
5.88288e-06
5.88339e-06
5.88391e-06
5.88443e-06
5.88495e-06
5.88543e-06
5.88589e-06
5.88631e-06
5.88673e-06
5.88718e-06
5.88764e-06
5.88813e-06
5.88863e-06
5.88916e-06
5.8897e-06
5.89026e-06
5.89084e-06
5.89144e-06
5.89205e-06
5.89267e-06
5.89329e-06
5.89392e-06
5.89456e-06
5.8952e-06
5.89584e-06
5.8965e-06
5.89715e-06
5.89782e-06
5.89849e-06
5.89917e-06
5.89985e-06
5.90054e-06
5.90124e-06
5.90194e-06
5.90265e-06
5.90336e-06
5.90411e-06
5.90473e-06
5.90592e-06
5.87173e-06
5.87215e-06
5.87257e-06
5.87299e-06
5.87342e-06
5.87385e-06
5.87429e-06
5.87474e-06
5.87519e-06
5.87564e-06
5.8761e-06
5.87656e-06
5.87703e-06
5.87751e-06
5.87799e-06
5.87847e-06
5.87896e-06
5.87944e-06
5.87993e-06
5.88042e-06
5.88091e-06
5.88139e-06
5.88186e-06
5.88233e-06
5.88278e-06
5.88323e-06
5.8837e-06
5.88419e-06
5.88471e-06
5.88526e-06
5.88582e-06
5.88638e-06
5.88695e-06
5.88753e-06
5.88811e-06
5.8887e-06
5.88929e-06
5.88988e-06
5.89048e-06
5.89109e-06
5.8917e-06
5.89232e-06
5.89295e-06
5.89359e-06
5.89423e-06
5.89488e-06
5.89553e-06
5.8962e-06
5.89686e-06
5.89754e-06
5.89822e-06
5.8989e-06
5.8996e-06
5.90029e-06
5.901e-06
5.90171e-06
5.90243e-06
5.90315e-06
5.90388e-06
5.90462e-06
5.90536e-06
5.90611e-06
5.90687e-06
5.90764e-06
5.90841e-06
5.90918e-06
5.90999e-06
5.91066e-06
5.91196e-06
5.87209e-06
5.87248e-06
5.87287e-06
5.87327e-06
5.87367e-06
5.87408e-06
5.87449e-06
5.8749e-06
5.87532e-06
5.87574e-06
5.87617e-06
5.87661e-06
5.87705e-06
5.87749e-06
5.87794e-06
5.87839e-06
5.87885e-06
5.87931e-06
5.87978e-06
5.88025e-06
5.88071e-06
5.88117e-06
5.88162e-06
5.88207e-06
5.8825e-06
5.88292e-06
5.88334e-06
5.88378e-06
5.88423e-06
5.8847e-06
5.88519e-06
5.8857e-06
5.88623e-06
5.88678e-06
5.88733e-06
5.88789e-06
5.88845e-06
5.88902e-06
5.8896e-06
5.89018e-06
5.89077e-06
5.89136e-06
5.89196e-06
5.89256e-06
5.89317e-06
5.89379e-06
5.89441e-06
5.89504e-06
5.89568e-06
5.89632e-06
5.89696e-06
5.89762e-06
5.89828e-06
5.89894e-06
5.89962e-06
5.90029e-06
5.90098e-06
5.90167e-06
5.90237e-06
5.90307e-06
5.90378e-06
5.9045e-06
5.90522e-06
5.90596e-06
5.9067e-06
5.90743e-06
5.90821e-06
5.90886e-06
5.9101e-06
5.87173e-06
5.87213e-06
5.87254e-06
5.87295e-06
5.87336e-06
5.87378e-06
5.87421e-06
5.87463e-06
5.87507e-06
5.8755e-06
5.87594e-06
5.87639e-06
5.87684e-06
5.87729e-06
5.87775e-06
5.87821e-06
5.87868e-06
5.87915e-06
5.87963e-06
5.88011e-06
5.8806e-06
5.88108e-06
5.88157e-06
5.88206e-06
5.88254e-06
5.88302e-06
5.88349e-06
5.88396e-06
5.88441e-06
5.88486e-06
5.88533e-06
5.8858e-06
5.88629e-06
5.88679e-06
5.8873e-06
5.88783e-06
5.88838e-06
5.88894e-06
5.88951e-06
5.8901e-06
5.8907e-06
5.8913e-06
5.89191e-06
5.89252e-06
5.89314e-06
5.89376e-06
5.8944e-06
5.89503e-06
5.89568e-06
5.89633e-06
5.89698e-06
5.89764e-06
5.89831e-06
5.89899e-06
5.89967e-06
5.90036e-06
5.90105e-06
5.90175e-06
5.90246e-06
5.90317e-06
5.9039e-06
5.90462e-06
5.90536e-06
5.9061e-06
5.90685e-06
5.9076e-06
5.90838e-06
5.90904e-06
5.9103e-06
5.87093e-06
5.87131e-06
5.87169e-06
5.87208e-06
5.87247e-06
5.87287e-06
5.87326e-06
5.87367e-06
5.87407e-06
5.87448e-06
5.8749e-06
5.87532e-06
5.87574e-06
5.87617e-06
5.8766e-06
5.87704e-06
5.87748e-06
5.87793e-06
5.87838e-06
5.87883e-06
5.87929e-06
5.87976e-06
5.88022e-06
5.88069e-06
5.88116e-06
5.88163e-06
5.88209e-06
5.88255e-06
5.88299e-06
5.88343e-06
5.88387e-06
5.88432e-06
5.88477e-06
5.88524e-06
5.88571e-06
5.8862e-06
5.8867e-06
5.88721e-06
5.88774e-06
5.88828e-06
5.88883e-06
5.8894e-06
5.88997e-06
5.89055e-06
5.89113e-06
5.89172e-06
5.89232e-06
5.89292e-06
5.89353e-06
5.89414e-06
5.89476e-06
5.89539e-06
5.89602e-06
5.89665e-06
5.8973e-06
5.89795e-06
5.8986e-06
5.89927e-06
5.89994e-06
5.90061e-06
5.90129e-06
5.90198e-06
5.90267e-06
5.90337e-06
5.90408e-06
5.90479e-06
5.90554e-06
5.90616e-06
5.90735e-06
5.86944e-06
5.86982e-06
5.87019e-06
5.87058e-06
5.87097e-06
5.87135e-06
5.87174e-06
5.87214e-06
5.87253e-06
5.87294e-06
5.87334e-06
5.87375e-06
5.87416e-06
5.87458e-06
5.875e-06
5.87542e-06
5.87585e-06
5.87628e-06
5.87672e-06
5.87716e-06
5.87761e-06
5.87806e-06
5.87851e-06
5.87897e-06
5.87944e-06
5.8799e-06
5.88037e-06
5.88084e-06
5.88131e-06
5.88178e-06
5.88225e-06
5.88272e-06
5.88319e-06
5.88365e-06
5.88411e-06
5.88457e-06
5.88504e-06
5.88551e-06
5.88599e-06
5.88648e-06
5.88698e-06
5.88749e-06
5.888e-06
5.88852e-06
5.88906e-06
5.8896e-06
5.89015e-06
5.89071e-06
5.89128e-06
5.89185e-06
5.89244e-06
5.89304e-06
5.89364e-06
5.89425e-06
5.89486e-06
5.89549e-06
5.89612e-06
5.89675e-06
5.89739e-06
5.89805e-06
5.8987e-06
5.89936e-06
5.90002e-06
5.90069e-06
5.90137e-06
5.90205e-06
5.90276e-06
5.90336e-06
5.90451e-06
5.86743e-06
5.86777e-06
5.86811e-06
5.86846e-06
5.86881e-06
5.86916e-06
5.86952e-06
5.86988e-06
5.87024e-06
5.87061e-06
5.87098e-06
5.87135e-06
5.87173e-06
5.87211e-06
5.8725e-06
5.87289e-06
5.87328e-06
5.87368e-06
5.87408e-06
5.87448e-06
5.87489e-06
5.8753e-06
5.87572e-06
5.87614e-06
5.87656e-06
5.87699e-06
5.87742e-06
5.87786e-06
5.8783e-06
5.87874e-06
5.87918e-06
5.87962e-06
5.88006e-06
5.8805e-06
5.88094e-06
5.88137e-06
5.8818e-06
5.88224e-06
5.88268e-06
5.88313e-06
5.88359e-06
5.88405e-06
5.88452e-06
5.885e-06
5.88549e-06
5.88598e-06
5.88649e-06
5.887e-06
5.88752e-06
5.88805e-06
5.88859e-06
5.88914e-06
5.88969e-06
5.89026e-06
5.89083e-06
5.8914e-06
5.89198e-06
5.89256e-06
5.89316e-06
5.89375e-06
5.89435e-06
5.89496e-06
5.89558e-06
5.89619e-06
5.89682e-06
5.89745e-06
5.89811e-06
5.89865e-06
5.8997e-06
5.86481e-06
5.86512e-06
5.86544e-06
5.86576e-06
5.86608e-06
5.86641e-06
5.86677e-06
5.86714e-06
5.8675e-06
5.86786e-06
5.86821e-06
5.86856e-06
5.86891e-06
5.86926e-06
5.86961e-06
5.86997e-06
5.87033e-06
5.87069e-06
5.87106e-06
5.87143e-06
5.87181e-06
5.87218e-06
5.87257e-06
5.87295e-06
5.87334e-06
5.87373e-06
5.87413e-06
5.87453e-06
5.87493e-06
5.87534e-06
5.87575e-06
5.87617e-06
5.87659e-06
5.87701e-06
5.87744e-06
5.87787e-06
5.8783e-06
5.87873e-06
5.87917e-06
5.87961e-06
5.88005e-06
5.88049e-06
5.88093e-06
5.88138e-06
5.88182e-06
5.88227e-06
5.88272e-06
5.88318e-06
5.88364e-06
5.8841e-06
5.88458e-06
5.88505e-06
5.88554e-06
5.88603e-06
5.88652e-06
5.88703e-06
5.88754e-06
5.88805e-06
5.88857e-06
5.8891e-06
5.88963e-06
5.89017e-06
5.89072e-06
5.89127e-06
5.89184e-06
5.8924e-06
5.89299e-06
5.89349e-06
5.89445e-06
5.86186e-06
5.86214e-06
5.86241e-06
5.86269e-06
5.86297e-06
5.86326e-06
5.86354e-06
5.86383e-06
5.86412e-06
5.86442e-06
5.86471e-06
5.86501e-06
5.86531e-06
5.86562e-06
5.86593e-06
5.86624e-06
5.86655e-06
5.86687e-06
5.86719e-06
5.86751e-06
5.86784e-06
5.86817e-06
5.8685e-06
5.86883e-06
5.86917e-06
5.86951e-06
5.86986e-06
5.87021e-06
5.87056e-06
5.87091e-06
5.87127e-06
5.87163e-06
5.872e-06
5.87237e-06
5.87274e-06
5.87312e-06
5.8735e-06
5.87388e-06
5.87426e-06
5.87465e-06
5.87504e-06
5.87543e-06
5.87583e-06
5.87622e-06
5.87662e-06
5.87701e-06
5.87741e-06
5.87781e-06
5.87821e-06
5.87862e-06
5.87904e-06
5.87945e-06
5.87988e-06
5.8803e-06
5.88074e-06
5.88118e-06
5.88162e-06
5.88207e-06
5.88253e-06
5.88299e-06
5.88345e-06
5.88392e-06
5.8844e-06
5.88488e-06
5.88537e-06
5.88586e-06
5.88638e-06
5.88681e-06
5.88764e-06
5.85845e-06
5.85869e-06
5.85892e-06
5.85916e-06
5.8594e-06
5.85964e-06
5.85988e-06
5.86012e-06
5.86038e-06
5.86066e-06
5.86095e-06
5.86123e-06
5.86151e-06
5.86178e-06
5.86205e-06
5.86231e-06
5.86258e-06
5.86285e-06
5.86312e-06
5.8634e-06
5.86367e-06
5.86395e-06
5.86423e-06
5.86452e-06
5.86481e-06
5.8651e-06
5.86539e-06
5.86569e-06
5.86599e-06
5.86629e-06
5.86659e-06
5.8669e-06
5.86721e-06
5.86752e-06
5.86784e-06
5.86816e-06
5.86848e-06
5.86881e-06
5.86914e-06
5.86947e-06
5.86981e-06
5.87015e-06
5.87049e-06
5.87083e-06
5.87118e-06
5.87154e-06
5.87189e-06
5.87225e-06
5.87261e-06
5.87298e-06
5.87335e-06
5.87372e-06
5.8741e-06
5.87448e-06
5.87486e-06
5.87525e-06
5.87564e-06
5.87604e-06
5.87644e-06
5.87684e-06
5.87725e-06
5.87766e-06
5.87807e-06
5.87849e-06
5.87891e-06
5.87933e-06
5.87978e-06
5.88015e-06
5.88086e-06
5.85521e-06
5.8554e-06
5.85558e-06
5.85577e-06
5.85596e-06
5.85615e-06
5.85635e-06
5.85654e-06
5.85674e-06
5.85694e-06
5.85714e-06
5.85734e-06
5.85755e-06
5.85775e-06
5.85796e-06
5.85817e-06
5.85838e-06
5.8586e-06
5.85881e-06
5.85903e-06
5.85925e-06
5.85947e-06
5.8597e-06
5.85992e-06
5.86015e-06
5.86038e-06
5.86062e-06
5.86085e-06
5.86109e-06
5.86133e-06
5.86157e-06
5.86181e-06
5.86206e-06
5.86231e-06
5.86256e-06
5.86282e-06
5.86307e-06
5.86333e-06
5.86359e-06
5.86386e-06
5.86412e-06
5.86439e-06
5.86466e-06
5.86494e-06
5.86521e-06
5.86549e-06
5.86578e-06
5.86606e-06
5.86635e-06
5.86664e-06
5.86693e-06
5.86723e-06
5.86753e-06
5.86783e-06
5.86813e-06
5.86844e-06
5.86875e-06
5.86906e-06
5.86938e-06
5.8697e-06
5.87002e-06
5.87035e-06
5.87067e-06
5.87101e-06
5.87134e-06
5.87168e-06
5.87203e-06
5.87232e-06
5.87288e-06
5.8508e-06
5.85093e-06
5.85107e-06
5.8512e-06
5.85134e-06
5.85148e-06
5.85162e-06
5.85176e-06
5.85191e-06
5.85205e-06
5.8522e-06
5.85235e-06
5.8525e-06
5.85265e-06
5.8528e-06
5.85296e-06
5.85311e-06
5.85327e-06
5.85343e-06
5.85359e-06
5.85375e-06
5.85391e-06
5.85408e-06
5.85424e-06
5.85441e-06
5.85458e-06
5.85475e-06
5.85492e-06
5.85509e-06
5.85527e-06
5.85545e-06
5.85562e-06
5.8558e-06
5.85598e-06
5.85616e-06
5.85635e-06
5.85653e-06
5.85672e-06
5.85691e-06
5.8571e-06
5.85729e-06
5.85748e-06
5.85768e-06
5.85788e-06
5.85807e-06
5.85827e-06
5.85847e-06
5.85868e-06
5.85888e-06
5.85909e-06
5.8593e-06
5.85951e-06
5.85972e-06
5.85993e-06
5.86015e-06
5.86036e-06
5.86058e-06
5.8608e-06
5.86103e-06
5.86125e-06
5.86148e-06
5.8617e-06
5.86193e-06
5.86216e-06
5.8624e-06
5.86263e-06
5.86288e-06
5.86308e-06
5.86347e-06
5.84214e-06
5.8422e-06
5.84228e-06
5.84237e-06
5.84245e-06
5.84254e-06
5.84262e-06
5.84271e-06
5.84279e-06
5.84287e-06
5.84295e-06
5.84303e-06
5.8431e-06
5.84318e-06
5.84324e-06
5.8433e-06
5.84335e-06
5.84339e-06
5.84342e-06
5.84345e-06
5.84347e-06
5.84348e-06
5.84349e-06
5.8435e-06
5.8435e-06
5.8435e-06
5.84351e-06
5.84351e-06
5.84352e-06
5.84353e-06
5.84354e-06
5.84355e-06
5.84357e-06
5.84358e-06
5.8436e-06
5.84362e-06
5.84364e-06
5.84366e-06
5.84368e-06
5.84371e-06
5.84373e-06
5.84375e-06
5.84378e-06
5.8438e-06
5.84383e-06
5.84385e-06
5.84387e-06
5.8439e-06
5.84392e-06
5.84395e-06
5.84397e-06
5.844e-06
5.84402e-06
5.84405e-06
5.84407e-06
5.84409e-06
5.84411e-06
5.84414e-06
5.84416e-06
5.84418e-06
5.8442e-06
5.84422e-06
5.84424e-06
5.84426e-06
5.84428e-06
5.8443e-06
5.84432e-06
5.84435e-06
5.84435e-06
5.84095e-06
5.84276e-06
5.84438e-06
5.84584e-06
5.84715e-06
5.84833e-06
5.84938e-06
5.85033e-06
5.85117e-06
5.85193e-06
5.85261e-06
5.85322e-06
5.85375e-06
5.85429e-06
5.85464e-06
5.84098e-06
5.84284e-06
5.84452e-06
5.84603e-06
5.84738e-06
5.8486e-06
5.84969e-06
5.85066e-06
5.85154e-06
5.85233e-06
5.85303e-06
5.85367e-06
5.85423e-06
5.85475e-06
5.85518e-06
5.841e-06
5.84291e-06
5.84462e-06
5.84617e-06
5.84755e-06
5.8488e-06
5.84992e-06
5.85092e-06
5.85182e-06
5.85263e-06
5.85336e-06
5.85402e-06
5.8546e-06
5.85514e-06
5.8556e-06
5.84101e-06
5.84294e-06
5.84467e-06
5.84623e-06
5.84764e-06
5.8489e-06
5.85004e-06
5.85106e-06
5.85197e-06
5.8528e-06
5.85354e-06
5.85421e-06
5.85481e-06
5.85536e-06
5.85583e-06
5.84101e-06
5.84294e-06
5.84467e-06
5.84623e-06
5.84764e-06
5.8489e-06
5.85004e-06
5.85106e-06
5.85198e-06
5.85281e-06
5.85356e-06
5.85423e-06
5.85483e-06
5.85538e-06
5.85586e-06
5.841e-06
5.84289e-06
5.8446e-06
5.84614e-06
5.84752e-06
5.84877e-06
5.84989e-06
5.8509e-06
5.85181e-06
5.85263e-06
5.85337e-06
5.85403e-06
5.85463e-06
5.85518e-06
5.85565e-06
5.84096e-06
5.8428e-06
5.84445e-06
5.84594e-06
5.84728e-06
5.84849e-06
5.84958e-06
5.85056e-06
5.85144e-06
5.85224e-06
5.85295e-06
5.8536e-06
5.85418e-06
5.85471e-06
5.85517e-06
5.84092e-06
5.84266e-06
5.84423e-06
5.84564e-06
5.84691e-06
5.84806e-06
5.84909e-06
5.85002e-06
5.85086e-06
5.85162e-06
5.8523e-06
5.85292e-06
5.85347e-06
5.85397e-06
5.85441e-06
5.84085e-06
5.84247e-06
5.84392e-06
5.84523e-06
5.84641e-06
5.84748e-06
5.84844e-06
5.8493e-06
5.85008e-06
5.85079e-06
5.85142e-06
5.85199e-06
5.85251e-06
5.85297e-06
5.85339e-06
5.84077e-06
5.84223e-06
5.84354e-06
5.84473e-06
5.8458e-06
5.84676e-06
5.84763e-06
5.84841e-06
5.84912e-06
5.84975e-06
5.85033e-06
5.85084e-06
5.85131e-06
5.85173e-06
5.8521e-06
5.84067e-06
5.84195e-06
5.84311e-06
5.84415e-06
5.84508e-06
5.84593e-06
5.84669e-06
5.84737e-06
5.84799e-06
5.84855e-06
5.84905e-06
5.84951e-06
5.84991e-06
5.85028e-06
5.85061e-06
5.84057e-06
5.84164e-06
5.84262e-06
5.84349e-06
5.84428e-06
5.84499e-06
5.84563e-06
5.84621e-06
5.84673e-06
5.8472e-06
5.84762e-06
5.848e-06
5.84835e-06
5.84866e-06
5.84893e-06
5.84045e-06
5.84131e-06
5.84208e-06
5.84278e-06
5.8434e-06
5.84397e-06
5.84448e-06
5.84494e-06
5.84535e-06
5.84573e-06
5.84606e-06
5.84637e-06
5.84664e-06
5.84689e-06
5.84711e-06
5.84032e-06
5.84093e-06
5.84148e-06
5.84198e-06
5.84243e-06
5.84284e-06
5.8432e-06
5.84353e-06
5.84383e-06
5.8441e-06
5.84434e-06
5.84456e-06
5.84476e-06
5.84493e-06
5.84509e-06
5.84012e-06
5.84036e-06
5.84058e-06
5.84078e-06
5.84093e-06
5.84104e-06
5.8411e-06
5.84113e-06
5.84115e-06
5.84115e-06
5.84116e-06
5.84116e-06
5.84117e-06
5.84117e-06
5.84118e-06
5.85496e-06
5.85521e-06
5.85544e-06
5.85567e-06
5.85586e-06
5.85599e-06
5.85607e-06
5.85613e-06
5.85615e-06
5.85617e-06
5.85619e-06
5.85622e-06
5.85628e-06
5.85637e-06
5.8565e-06
5.85667e-06
5.85689e-06
5.85714e-06
5.85743e-06
5.85775e-06
5.85808e-06
5.85843e-06
5.85877e-06
5.85911e-06
5.85942e-06
5.85971e-06
5.86e-06
5.86028e-06
5.86056e-06
5.86084e-06
5.86111e-06
5.86138e-06
5.86164e-06
5.86191e-06
5.86218e-06
5.86244e-06
5.86271e-06
5.86298e-06
5.86326e-06
5.86354e-06
5.86383e-06
5.86413e-06
5.86443e-06
5.86474e-06
5.86506e-06
5.86541e-06
5.86573e-06
5.86615e-06
5.86636e-06
5.86703e-06
5.85556e-06
5.85587e-06
5.85619e-06
5.8565e-06
5.85681e-06
5.85712e-06
5.85744e-06
5.85775e-06
5.85806e-06
5.85837e-06
5.85867e-06
5.85896e-06
5.85925e-06
5.85952e-06
5.85977e-06
5.86002e-06
5.86025e-06
5.86048e-06
5.86069e-06
5.8609e-06
5.8611e-06
5.86129e-06
5.86149e-06
5.86168e-06
5.86187e-06
5.86205e-06
5.86224e-06
5.86243e-06
5.86262e-06
5.86282e-06
5.86301e-06
5.8632e-06
5.8634e-06
5.86359e-06
5.86379e-06
5.86399e-06
5.86419e-06
5.86439e-06
5.86458e-06
5.86478e-06
5.86498e-06
5.86518e-06
5.86537e-06
5.86556e-06
5.86576e-06
5.86595e-06
5.86614e-06
5.86641e-06
5.86676e-06
5.86723e-06
5.85599e-06
5.85631e-06
5.85663e-06
5.85694e-06
5.85726e-06
5.85757e-06
5.85789e-06
5.8582e-06
5.8585e-06
5.85881e-06
5.85912e-06
5.85943e-06
5.85974e-06
5.86005e-06
5.86036e-06
5.86067e-06
5.86098e-06
5.86129e-06
5.8616e-06
5.8619e-06
5.86221e-06
5.86251e-06
5.86281e-06
5.86311e-06
5.8634e-06
5.86369e-06
5.86397e-06
5.86426e-06
5.86454e-06
5.86481e-06
5.86508e-06
5.86535e-06
5.86562e-06
5.86588e-06
5.86614e-06
5.8664e-06
5.86666e-06
5.86691e-06
5.86716e-06
5.86741e-06
5.86765e-06
5.8679e-06
5.86813e-06
5.86837e-06
5.8686e-06
5.86884e-06
5.86906e-06
5.86928e-06
5.86949e-06
5.86971e-06
5.85622e-06
5.85655e-06
5.85687e-06
5.85719e-06
5.85751e-06
5.85783e-06
5.85815e-06
5.85846e-06
5.85878e-06
5.8591e-06
5.85942e-06
5.85973e-06
5.86005e-06
5.86036e-06
5.86067e-06
5.86098e-06
5.86129e-06
5.8616e-06
5.86191e-06
5.86222e-06
5.86252e-06
5.86283e-06
5.86313e-06
5.86343e-06
5.86374e-06
5.86404e-06
5.86434e-06
5.86464e-06
5.86494e-06
5.86524e-06
5.86554e-06
5.86584e-06
5.86614e-06
5.86644e-06
5.86673e-06
5.86703e-06
5.86733e-06
5.86762e-06
5.86791e-06
5.86821e-06
5.8685e-06
5.86879e-06
5.86909e-06
5.86938e-06
5.86967e-06
5.86995e-06
5.87024e-06
5.87053e-06
5.87081e-06
5.87112e-06
5.85626e-06
5.85658e-06
5.8569e-06
5.85721e-06
5.85753e-06
5.85785e-06
5.85816e-06
5.85848e-06
5.85879e-06
5.85911e-06
5.85942e-06
5.85974e-06
5.86005e-06