/*--------------------------------*- C++ -*----------------------------------*\
| =========                 |                                                 |
| \\      /  F ield         | OpenFOAM: The Open Source CFD Toolbox           |
|  \\    /   O peration     | Version:  2412                                  |
|   \\  /    A nd           | Website:  www.openfoam.com                      |
|    \\/     M anipulation  |                                                 |
\*---------------------------------------------------------------------------*/
FoamFile
{
    version     2.0;
    format      ascii;
    arch        "LSB;label=32;scalar=64";
    class       volScalarField;
    location    "1000";
    object      p;
}
// * * * * * * * * * * * * * * * * * * * * * * * * * * * * * * * * * * * * * //

dimensions      [0 2 -2 0 0 0 0];

internalField   nonuniform List<scalar> 
14620
(
0.662541
0.666573
0.675923
0.687828
0.699726
0.710196
0.718222
0.722824
0.723183
0.718785
0.70945
0.695351
0.676984
0.655517
0.631971
0.639387
0.642247
0.648774
0.65668
0.663773
0.66877
0.670787
0.66906
0.663023
0.652407
0.637234
0.617728
0.594255
0.567044
0.536431
0.613089
0.614741
0.618376
0.622241
0.624581
0.624295
0.620663
0.613149
0.601435
0.58548
0.565502
0.541927
0.515363
0.486515
0.456262
0.583519
0.583967
0.584716
0.584603
0.582363
0.577125
0.568364
0.55579
0.539339
0.519183
0.495695
0.469384
0.440844
0.410634
0.379389
0.55067
0.549939
0.547922
0.544052
0.537603
0.527975
0.514855
0.498193
0.478156
0.455095
0.429506
0.401978
0.373152
0.343624
0.314046
0.514663
0.512857
0.508301
0.501057
0.490953
0.477677
0.461124
0.441458
0.419028
0.3943
0.367814
0.340134
0.311825
0.283363
0.255267
0.475829
0.473089
0.466343
0.45626
0.443216
0.427178
0.408228
0.386702
0.363078
0.337892
0.311693
0.285014
0.258361
0.232132
0.206744
0.434707
0.431217
0.422733
0.410472
0.395309
0.377471
0.357192
0.334927
0.311226
0.286629
0.26163
0.236673
0.212149
0.188345
0.165568
0.392069
0.388044
0.37834
0.36463
0.348208
0.329509
0.308865
0.286783
0.263835
0.240535
0.217325
0.194575
0.172594
0.151586
0.131765
0.348915
0.344579
0.334182
0.319745
0.302905
0.284273
0.264241
0.243328
0.222068
0.200901
0.180166
0.160121
0.140973
0.122842
0.10586
0.306455
0.302019
0.291397
0.276825
0.260138
0.242035
0.222921
0.203302
0.183684
0.164461
0.145919
0.128259
0.111625
0.0960839
0.0817061
0.266088
0.261698
0.251237
0.237177
0.221531
0.20501
0.187951
0.170764
0.153848
0.137486
0.121856
0.107073
0.0932136
0.0803073
0.0683836
0.229446
0.225092
0.214486
0.200315
0.184821
0.168799
0.152572
0.136515
0.120997
0.106267
0.0924593
0.0796376
0.067826
0.0570066
0.0471611
0.198542
0.194591
0.185026
0.172539
0.159125
0.14548
0.131853
0.118494
0.105642
0.0934484
0.0819914
0.0713095
0.0614151
0.0523089
0.0439592
0.175976
0.167392
0.153628
0.138651
0.123842
0.109465
0.0956949
0.0827621
0.0708222
0.0599193
0.0500307
0.0411063
0.0330826
0.0258874
0.0194483
0.611791
0.584379
0.552528
0.519115
0.48285
0.442476
0.397812
0.348973
0.295898
0.238482
0.176729
0.110746
0.0407112
-0.0331219
-0.110414
-0.190732
-0.273555
-0.358279
-0.444227
-0.530662
-0.616804
-0.701848
-0.784984
-0.865418
-0.942393
-1.0152
-1.08324
-1.14596
-1.20288
-1.25364
-1.29792
-1.33556
-1.36643
-1.39051
-1.40785
-1.41856
-1.42285
-1.42094
-1.41314
-1.39979
-1.38127
-1.358
-1.33041
-1.29898
-1.26419
-1.22654
-1.18651
-1.14473
-1.10182
-1.05848
0.505299
0.472871
0.438904
0.404329
0.36745
0.327245
0.283807
0.237384
0.188023
0.135712
0.0804971
0.0225106
-0.038047
-0.100931
-0.16585
-0.232462
-0.300378
-0.369171
-0.438378
-0.507512
-0.57607
-0.643545
-0.709433
-0.773247
-0.834524
-0.892838
-0.947709
-0.998731
-1.04559
-1.08801
-1.12578
-1.15874
-1.18677
-1.20981
-1.22787
-1.24097
-1.24921
-1.25271
-1.25162
-1.24613
-1.23647
-1.22286
-1.20557
-1.18485
-1.16098
-1.13421
-1.10478
-1.07292
-1.03867
-1.00247
0.428417
0.401226
0.372112
0.341546
0.308813
0.273537
0.235793
0.195686
0.153226
0.108404
0.0612875
0.0120168
-0.0392346
-0.0922779
-0.146892
-0.202818
-0.259758
-0.317387
-0.375352
-0.433278
-0.490772
-0.547433
-0.602854
-0.656634
-0.708381
-0.757723
-0.804314
-0.847847
-0.888056
-0.924706
-0.957603
-0.986594
-1.01157
-1.03246
-1.04925
-1.06194
-1.07058
-1.07527
-1.07611
-1.07326
-1.06689
-1.05719
-1.04439
-1.02871
-1.01042
-0.989772
-0.967048
-0.942441
-0.915979
-0.887838
0.350763
0.323709
0.294977
0.265016
0.233423
0.199975
0.16474
0.127823
0.0892937
0.0492203
0.00770961
-0.0351121
-0.0791145
-0.124147
-0.170027
-0.216551
-0.263495
-0.310623
-0.357685
-0.40442
-0.450563
-0.495847
-0.540005
-0.582778
-0.623916
-0.663184
-0.700361
-0.735244
-0.76765
-0.797422
-0.824427
-0.848561
-0.869743
-0.887921
-0.903068
-0.91518
-0.924278
-0.930404
-0.933623
-0.934016
-0.931681
-0.92673
-0.919288
-0.909488
-0.897469
-0.883376
-0.867355
-0.849539
-0.830083
-0.809005
0.287759
0.263639
0.238365
0.21225
0.184974
0.156373
0.126504
0.0954494
0.0632529
0.0299554
-0.0043802
-0.0396714
-0.0758152
-0.112686
-0.150147
-0.188049
-0.226233
-0.26453
-0.302758
-0.340731
-0.378256
-0.415138
-0.451181
-0.486194
-0.519987
-0.552382
-0.583206
-0.612302
-0.639528
-0.664755
-0.687873
-0.708791
-0.727435
-0.743749
-0.757698
-0.769265
-0.778452
-0.785277
-0.789777
-0.792002
-0.79202
-0.789909
-0.78576
-0.779674
-0.771762
-0.76214
-0.750936
-0.738257
-0.724283
-0.708915
0.230576
0.208463
0.185462
0.161763
0.137157
0.111568
0.0850625
0.057723
0.0296035
0.000759646
-0.0287351
-0.0587934
-0.0893199
-0.120216
-0.151379
-0.182701
-0.214061
-0.245334
-0.276392
-0.307102
-0.337331
-0.366948
-0.39582
-0.423819
-0.450821
-0.476708
-0.50137
-0.524702
-0.546613
-0.567018
-0.585845
-0.603032
-0.61853
-0.632301
-0.64432
-0.654573
-0.663057
-0.669781
-0.674764
-0.678035
-0.679632
-0.679602
-0.677997
-0.67488
-0.670317
-0.664379
-0.657145
-0.648683
-0.639106
-0.628379
0.184817
0.16557
0.145724
0.125413
0.104509
0.0829683
0.0608418
0.0381871
0.0150434
-0.00855026
-0.0325445
-0.0568824
-0.0815028
-0.106341
-0.131325
-0.156375
-0.181406
-0.206334
-0.231072
-0.25553
-0.279616
-0.303239
-0.326308
-0.348733
-0.370428
-0.391308
-0.411293
-0.430308
-0.448284
-0.465158
-0.480874
-0.495381
-0.50864
-0.520616
-0.531285
-0.540628
-0.548637
-0.555311
-0.560656
-0.564686
-0.567422
-0.568892
-0.56913
-0.568174
-0.566071
-0.562868
-0.558621
-0.553378
-0.547225
-0.540111
0.146091
0.129265
0.112015
0.0944164
0.0763898
0.0579209
0.0390536
0.0198337
0.000295988
-0.0195232
-0.03958
-0.0598257
-0.0802087
-0.100675
-0.121168
-0.14163
-0.162
-0.182219
-0.202222
-0.221948
-0.241332
-0.26031
-0.278822
-0.296805
-0.314202
-0.330956
-0.347015
-0.362328
-0.376851
-0.390541
-0.403361
-0.415279
-0.426268
-0.436305
-0.445372
-0.453457
-0.460554
-0.466661
-0.471779
-0.475917
-0.479087
-0.481305
-0.482591
-0.482968
-0.482465
-0.481111
-0.478942
-0.475987
-0.472306
-0.467853
0.115031
0.100808
0.0863176
0.0715952
0.056606
0.0413536
0.0258705
0.0101876
-0.00566962
-0.0216745
-0.0377963
-0.0540016
-0.0702564
-0.0865253
-0.102772
-0.118957
-0.135041
-0.150982
-0.166739
-0.182268
-0.197529
-0.212481
-0.227081
-0.241289
-0.255067
-0.268377
-0.281181
-0.293448
-0.305143
-0.316239
-0.326709
-0.336528
-0.345676
-0.354135
-0.361891
-0.368932
-0.375251
-0.380843
-0.385707
-0.389844
-0.39326
-0.395961
-0.397958
-0.399265
-0.399897
-0.399874
-0.399216
-0.39794
-0.39609
-0.393614
0.0916238
0.0795976
0.067391
0.0550305
0.0424943
0.0297879
0.0169363
0.00396318
-0.0091114
-0.0222663
-0.0354774
-0.0487193
-0.0619656
-0.0751897
-0.0883638
-0.101459
-0.114447
-0.127298
-0.139983
-0.152472
-0.164737
-0.176749
-0.188479
-0.1999
-0.210986
-0.22171
-0.232048
-0.241978
-0.251478
-0.260528
-0.269111
-0.277211
-0.284813
-0.291906
-0.298479
-0.304525
-0.310037
-0.315013
-0.319452
-0.323354
-0.326775
-0.329654
-0.33197
-0.333757
-0.33504
-0.335829
-0.336136
-0.335972
-0.335366
-0.334279
0.0697955
0.0599048
0.0499148
0.0398167
0.0296161
0.0193311
0.00897863
-0.00142735
-0.011873
-0.0223426
-0.0328191
-0.0432854
-0.0537238
-0.0641168
-0.0744463
-0.084694
-0.0948411
-0.104869
-0.114758
-0.12449
-0.134045
-0.143406
-0.152554
-0.161471
-0.17014
-0.178544
-0.186668
-0.194496
-0.202014
-0.20921
-0.21607
-0.222584
-0.228743
-0.234536
-0.239957
-0.245
-0.24966
-0.253931
-0.257815
-0.261305
-0.264437
-0.267213
-0.269596
-0.271569
-0.273139
-0.274334
-0.275169
-0.275648
-0.275791
-0.275563
0.0585335
0.0502941
0.0419877
0.0336329
0.025218
0.0167454
0.00822946
-0.000315651
-0.00887767
-0.0174443
-0.0260025
-0.0345391
-0.0430414
-0.0514965
-0.0598916
-0.0682131
-0.0764476
-0.0845813
-0.0926003
-0.100491
-0.108241
-0.115838
-0.123268
-0.130519
-0.13758
-0.144438
-0.151084
-0.157506
-0.163695
-0.169642
-0.175341
-0.180786
-0.185969
-0.190886
-0.19553
-0.199899
-0.20399
-0.207803
-0.211334
-0.214584
-0.217511
-0.220172
-0.222576
-0.224689
-0.226506
-0.228028
-0.229265
-0.23021
-0.230889
-0.231292
0.0391528
0.0326165
0.0260492
0.0194287
0.0127772
0.00611697
-0.000541831
-0.00719358
-0.0138318
-0.0204489
-0.0270375
-0.0335906
-0.0401001
-0.0465577
-0.0529557
-0.059286
-0.0655405
-0.071711
-0.0777894
-0.0837676
-0.0896373
-0.0953903
-0.101018
-0.106514
-0.111869
-0.117077
-0.122131
-0.127024
-0.13175
-0.136302
-0.140677
-0.144867
-0.148872
-0.152687
-0.156311
-0.15974
-0.162972
-0.166008
-0.168843
-0.171485
-0.173905
-0.176099
-0.178098
-0.179915
-0.181543
-0.182966
-0.184177
-0.185177
-0.185973
-0.186558
0.0372376
0.0318967
0.0266383
0.021167
0.0154801
0.00960046
0.00361471
-0.00234422
-0.00822496
-0.0139641
-0.0195625
-0.0251095
-0.0306349
-0.0361229
-0.0415594
-0.046939
-0.0522565
-0.0575042
-0.062675
-0.0677632
-0.0727642
-0.0776727
-0.0824828
-0.0871886
-0.0917846
-0.0962657
-0.100627
-0.104864
-0.108973
-0.112948
-0.116784
-0.120476
-0.12402
-0.127414
-0.130654
-0.133736
-0.136658
-0.139417
-0.14201
-0.144433
-0.146686
-0.148768
-0.150693
-0.152466
-0.154085
-0.155554
-0.156872
-0.158049
-0.159072
-0.159934
0.0143154
0.0101781
0.00604184
0.00189129
-0.0022513
-0.00637008
-0.0104616
-0.0145264
-0.0185607
-0.0225664
-0.0265053
-0.0303166
-0.0340299
-0.0377192
-0.041406
-0.0450697
-0.0486915
-0.0522664
-0.0557929
-0.0592662
-0.0626798
-0.0660288
-0.0693098
-0.0725197
-0.0756553
-0.0787131
-0.0816898
-0.0845824
-0.0873882
-0.0901049
-0.0927303
-0.0952626
-0.0976986
-0.100035
-0.10227
-0.104402
-0.106429
-0.108349
-0.110162
-0.111864
-0.113456
-0.114935
-0.116301
-0.117562
-0.118725
-0.119789
-0.120757
-0.121631
-0.122414
-0.123107
-1.00778
-0.951857
-0.894452
-0.834019
-0.772799
-0.712979
-0.655176
-0.599475
-0.546132
-0.495483
-0.447709
-0.402866
-0.360971
-0.322014
-0.285953
-0.252707
-0.222171
-0.194227
-0.168744
-0.145583
-0.124596
-0.105627
-0.0885296
-0.0731659
-0.0594149
-0.0471674
-0.0363069
-0.0266974
-0.0182139
-0.0107538
-0.00422874
0.00144507
0.00634832
0.0105547
0.0141242
0.0170995
0.0195431
0.021584
0.0233268
0.0247636
0.0258491
0.0265862
0.0270331
0.0272589
0.0273101
0.0272046
0.026946
0.0265394
0.0259986
0.0253418
0.0245862
0.0237439
0.022823
0.0218293
0.0207693
0.0196494
0.0184757
0.0172523
0.0159821
0.0146656
0.0133027
0.0118929
0.0104376
0.00893517
0.00738973
0.00578471
0.00415836
0.0023946
0.000971442
-0.956659
-0.899127
-0.842815
-0.78922
-0.736649
-0.684735
-0.634122
-0.585234
-0.538209
-0.493179
-0.450294
-0.409667
-0.37136
-0.335399
-0.301785
-0.270491
-0.241466
-0.214643
-0.18994
-0.167275
-0.14653
-0.127571
-0.110271
-0.0944968
-0.0801622
-0.0672492
-0.0557352
-0.0454624
-0.0362804
-0.0280862
-0.0208011
-0.0143435
-0.0086401
-0.00362594
0.000747308
0.00446202
0.00747054
0.0100291
0.0124463
0.0146641
0.0164979
0.0178745
0.0188631
0.0195758
0.0200961
0.0204528
0.0206454
0.0206714
0.0205399
0.0202691
0.0198784
0.0193828
0.0187915
0.0181117
0.0173508
0.0165167
0.0156168
0.0146564
0.0136386
0.0125654
0.0114383
0.0102592
0.00903077
0.00775378
0.00643364
0.00505788
0.00366546
0.00214339
0.000895521
-0.854328
-0.81225
-0.769788
-0.728361
-0.687051
-0.645526
-0.604279
-0.56379
-0.524277
-0.485872
-0.448755
-0.413102
-0.379041
-0.346657
-0.316011
-0.287136
-0.260039
-0.234706
-0.211103
-0.189182
-0.168883
-0.150139
-0.132873
-0.117
-0.102431
-0.0890446
-0.0768421
-0.0657977
-0.0558539
-0.0469168
-0.0389178
-0.031731
-0.0252706
-0.0194692
-0.0143235
-0.0098913
-0.00610704
-0.00277639
0.000300583
0.00315125
0.00563542
0.00766691
0.00928524
0.0105944
0.0116776
0.0125672
0.0132656
0.0137735
0.0141005
0.0142642
0.0142855
0.0141815
0.0139638
0.0136412
0.0132219
0.0127149
0.0121288
0.01147
0.010743
0.00995122
0.00909772
0.00818602
0.00722041
0.00620365
0.00514251
0.00403077
0.0029049
0.00168254
0.000666029
-0.783578
-0.751452
-0.717545
-0.683228
-0.648555
-0.61349
-0.578342
-0.54349
-0.509191
-0.475614
-0.442923
-0.41127
-0.38078
-0.35155
-0.323649
-0.297127
-0.272012
-0.248315
-0.226034
-0.205139
-0.185613
-0.167443
-0.150599
-0.135046
-0.120693
-0.107372
-0.0949619
-0.0835272
-0.0730993
-0.0636232
-0.0550233
-0.047233
-0.0402001
-0.0338859
-0.0282211
-0.0231485
-0.0186032
-0.0145117
-0.0108148
-0.00749815
-0.00457631
-0.00204993
0.000115927
0.0019779
0.003584
0.00495962
0.00611588
0.00706299
0.00781623
0.00839429
0.00881542
0.00909447
0.00924287
0.0092705
0.00918736
0.0090037
0.00872908
0.00837124
0.00793608
0.00742835
0.00685268
0.0062139
0.00551752
0.00476804
0.00397305
0.0031304
0.00226689
0.00132696
0.000529572
-0.690337
-0.665804
-0.639625
-0.613133
-0.586285
-0.558924
-0.531228
-0.503484
-0.475897
-0.448603
-0.421731
-0.395409
-0.369758
-0.344877
-0.320849
-0.297736
-0.27559
-0.25445
-0.234346
-0.215299
-0.197315
-0.180391
-0.164512
-0.149657
-0.135797
-0.122932
-0.110961
-0.0998114
-0.0894311
-0.0797724
-0.0708055
-0.0625801
-0.0550849
-0.0482623
-0.0420473
-0.0363961
-0.0312644
-0.0266275
-0.0224376
-0.0186785
-0.0153078
-0.0122868
-0.00958946
-0.00719199
-0.00507124
-0.00320676
-0.00158056
-0.000175402
0.00102594
0.00204003
0.00288202
0.00356535
0.00410218
0.00450406
0.00478237
0.00494817
0.00501144
0.00498092
0.0048639
0.00466683
0.00439592
0.00405732
0.00365754
0.00320245
0.00269982
0.00215131
0.0015758
0.000944362
0.000371432
-0.615205
-0.597556
-0.578351
-0.558494
-0.537959
-0.516657
-0.494754
-0.472493
-0.450055
-0.427571
-0.405168
-0.382974
-0.361106
-0.339669
-0.31875
-0.298424
-0.278753
-0.259788
-0.241568
-0.224129
-0.207502
-0.191705
-0.176748
-0.16263
-0.149346
-0.136894
-0.125247
-0.114323
-0.104064
-0.0944422
-0.085441
-0.0770641
-0.0693009
-0.0621094
-0.0554779
-0.0493888
-0.0438107
-0.03871
-0.0340507
-0.0297999
-0.0259295
-0.0224218
-0.0192584
-0.0164061
-0.0138374
-0.0115309
-0.00946808
-0.00763239
-0.00600876
-0.00458306
-0.00334141
-0.00226984
-0.00135475
-0.000583651
5.47297e-05
0.000571263
0.000975235
0.00127666
0.00148372
0.00160489
0.0016478
0.00162012
0.0015289
0.00138176
0.00118661
0.00095127
0.000687491
0.000407601
0.000127562
-0.53121
-0.518553
-0.504488
-0.489819
-0.47455
-0.458526
-0.441864
-0.424764
-0.407366
-0.389768
-0.372067
-0.354361
-0.336745
-0.319305
-0.302118
-0.28525
-0.268762
-0.252706
-0.237128
-0.222065
-0.207551
-0.193612
-0.180268
-0.167532
-0.155412
-0.143905
-0.133004
-0.122698
-0.112983
-0.103863
-0.0953067
-0.0872628
-0.0797095
-0.0726356
-0.0660287
-0.05986
-0.0541198
-0.0487938
-0.0438731
-0.039313
-0.0351025
-0.0312375
-0.0277028
-0.0244752
-0.0215316
-0.018851
-0.0164156
-0.0142102
-0.0122201
-0.0104323
-0.00883407
-0.00741101
-0.00614889
-0.00503591
-0.00406304
-0.00321504
-0.00248961
-0.00186846
-0.00134953
-0.000919852
-0.000572923
-0.000297169
-8.88632e-05
6.40691e-05
0.00016557
0.00022664
0.000243543
0.000225683
9.81003e-05
-0.462143
-0.453727
-0.444138
-0.433937
-0.423087
-0.411504
-0.399269
-0.386517
-0.373345
-0.359828
-0.346043
-0.332074
-0.318001
-0.303899
-0.289838
-0.275879
-0.262082
-0.248497
-0.235173
-0.222151
-0.209469
-0.197157
-0.185241
-0.173745
-0.16269
-0.152091
-0.141959
-0.1323
-0.123116
-0.114409
-0.106174
-0.098381
-0.0909972
-0.0840097
-0.0774128
-0.0711964
-0.0653457
-0.0598543
-0.0547191
-0.0499274
-0.0454615
-0.0413009
-0.03743
-0.0338466
-0.0305404
-0.0274944
-0.0246917
-0.0221172
-0.0197583
-0.0176025
-0.0156369
-0.0138489
-0.0122264
-0.0107592
-0.00943448
-0.00823977
-0.00716589
-0.00620261
-0.00534135
-0.00457258
-0.00388786
-0.0032784
-0.00273624
-0.00225124
-0.0018148
-0.00140869
-0.00103262
-0.000600006
-0.00030397
-0.390284
-0.384842
-0.378411
-0.371462
-0.363902
-0.355695
-0.346931
-0.337736
-0.328115
-0.318093
-0.307736
-0.297115
-0.286296
-0.275345
-0.264318
-0.253266
-0.242237
-0.231275
-0.220419
-0.209709
-0.199179
-0.188861
-0.178783
-0.168966
-0.159432
-0.150197
-0.141277
-0.132681
-0.124418
-0.116493
-0.108907
-0.101659
-0.0947482
-0.0881748
-0.0819401
-0.0760451
-0.0704746
-0.065202
-0.060215
-0.0555086
-0.0510768
-0.046912
-0.0430058
-0.0393484
-0.0359283
-0.032733
-0.0297494
-0.0269657
-0.0243806
-0.021988
-0.0197762
-0.017733
-0.0158479
-0.0141107
-0.0125102
-0.0110423
-0.00969104
-0.00845534
-0.00731912
-0.00627717
-0.0053195
-0.00444169
-0.00363292
-0.00289016
-0.00220635
-0.00157727
-0.00101665
-0.000484033
-0.000200864
-0.332641
-0.329576
-0.325739
-0.32143
-0.316616
-0.311242
-0.305345
-0.298992
-0.292226
-0.285081
-0.277594
-0.269809
-0.26177
-0.253522
-0.245107
-0.236566
-0.227937
-0.219259
-0.210566
-0.201892
-0.193267
-0.184722
-0.176283
-0.167973
-0.159817
-0.151832
-0.144037
-0.136445
-0.12907
-0.121923
-0.115016
-0.108355
-0.101946
-0.095791
-0.0898945
-0.0842583
-0.0788837
-0.0737597
-0.0688699
-0.0642076
-0.0597721
-0.0555617
-0.0515715
-0.0477947
-0.0442236
-0.04085
-0.0376663
-0.0346642
-0.0318371
-0.0291829
-0.0266961
-0.0243674
-0.0221871
-0.020146
-0.0182384
-0.0164587
-0.0147982
-0.0132484
-0.0117998
-0.0104436
-0.00917041
-0.00797044
-0.00683309
-0.0057453
-0.00469633
-0.00365715
-0.00264491
-0.00151884
-0.000691136
-0.274999
-0.273403
-0.271199
-0.268618
-0.265626
-0.262178
-0.258266
-0.253902
-0.249178
-0.244169
-0.238902
-0.233362
-0.227553
-0.221503
-0.215246
-0.208819
-0.202255
-0.195586
-0.188842
-0.18205
-0.175234
-0.168417
-0.161621
-0.154869
-0.14818
-0.141575
-0.13507
-0.12868
-0.122418
-0.116296
-0.110325
-0.104513
-0.0988674
-0.0933953
-0.0881019
-0.0829907
-0.0780643
-0.073323
-0.0687666
-0.0643952
-0.0602088
-0.0562065
-0.0523866
-0.0487465
-0.0452829
-0.0419928
-0.038873
-0.0359194
-0.0331197
-0.0304653
-0.0279516
-0.0255744
-0.023329
-0.0212094
-0.0192093
-0.017322
-0.015541
-0.0138599
-0.0122722
-0.0107713
-0.00935034
-0.00800229
-0.00672079
-0.00549916
-0.0043361
-0.00322057
-0.00218629
-0.00114812
-0.000481606
-0.231507
-0.231113
-0.230265
-0.229091
-0.227573
-0.225684
-0.223433
-0.220847
-0.217948
-0.214752
-0.211274
-0.207527
-0.203531
-0.199304
-0.194868
-0.190246
-0.185458
-0.180526
-0.175471
-0.170314
-0.165072
-0.159766
-0.154415
-0.149035
-0.143646
-0.138263
-0.132902
-0.127578
-0.122303
-0.117091
-0.111954
-0.106901
-0.101942
-0.0970857
-0.0923397
-0.0877098
-0.0832013
-0.0788185
-0.0745658
-0.0704465
-0.0664628
-0.0626159
-0.0589069
-0.0553362
-0.0519038
-0.0486093
-0.0454516
-0.0424293
-0.0395393
-0.0367731
-0.0341248
-0.0315916
-0.029171
-0.0268595
-0.0246527
-0.0225456
-0.0205329
-0.0186091
-0.0167679
-0.0150024
-0.0133047
-0.0116654
-0.0100748
-0.00851941
-0.00699012
-0.00545317
-0.00394008
-0.0022624
-0.00100415
-0.187043
-0.187108
-0.186833
-0.186312
-0.185532
-0.18447
-0.183129
-0.181526
-0.179669
-0.177548
-0.175163
-0.172554
-0.169757
-0.16678
-0.163632
-0.16032
-0.156854
-0.153245
-0.149507
-0.145655
-0.141704
-0.137669
-0.133566
-0.129407
-0.125206
-0.120974
-0.116726
-0.112472
-0.108226
-0.103998
-0.0997974
-0.0956352
-0.0915199
-0.0874596
-0.0834619
-0.0795338
-0.0756814
-0.0719104
-0.0682254
-0.0646309
-0.0611304
-0.0577267
-0.0544225
-0.0512195
-0.048119
-0.0451217
-0.0422277
-0.0394365
-0.0367471
-0.0341578
-0.0316671
-0.0292733
-0.0269743
-0.0247679
-0.022651
-0.0206204
-0.0186725
-0.0168036
-0.0150097
-0.0132867
-0.0116302
-0.0100358
-0.00849986
-0.00701771
-0.00559046
-0.00420516
-0.00290159
-0.00156925
-0.000657895
-0.160736
-0.161383
-0.161762
-0.161901
-0.161815
-0.161501
-0.160959
-0.160194
-0.159212
-0.158018
-0.156617
-0.155014
-0.153219
-0.151237
-0.149083
-0.146769
-0.144304
-0.141698
-0.138959
-0.136096
-0.13312
-0.13004
-0.126865
-0.123606
-0.120273
-0.116877
-0.113428
-0.109936
-0.106412
-0.102864
-0.0993026
-0.0957366
-0.0921748
-0.0886254
-0.0850963
-0.0815949
-0.0781281
-0.0747023
-0.0713237
-0.0679976
-0.0647292
-0.0615228
-0.0583825
-0.0553117
-0.0523135
-0.0493901
-0.0465438
-0.0437758
-0.0410872
-0.0384785
-0.0359495
-0.0334998
-0.0311283
-0.0288338
-0.0266146
-0.0244683
-0.0223921
-0.0203828
-0.0184364
-0.016548
-0.0147119
-0.0129214
-0.0111687
-0.00944229
-0.00773551
-0.00601635
-0.00432323
-0.00246659
-0.00107122
-0.123758
-0.12423
-0.124529
-0.12468
-0.12468
-0.124523
-0.124209
-0.123739
-0.123117
-0.122344
-0.121423
-0.120358
-0.119152
-0.11781
-0.116339
-0.114751
-0.113051
-0.111244
-0.109334
-0.107326
-0.105225
-0.103036
-0.100766
-0.0984217
-0.096009
-0.093535
-0.0910067
-0.0884308
-0.0858141
-0.0831636
-0.0804858
-0.0777875
-0.0750752
-0.072355
-0.0696333
-0.0669157
-0.064208
-0.0615154
-0.0588431
-0.0561958
-0.0535779
-0.0509936
-0.0484467
-0.0459406
-0.0434785
-0.0410632
-0.0386972
-0.0363827
-0.0341216
-0.0319153
-0.0297652
-0.0276723
-0.0256374
-0.023661
-0.0217436
-0.019885
-0.0180854
-0.0163442
-0.0146611
-0.0130353
-0.0114662
-0.00995271
-0.00849401
-0.0070886
-0.00573631
-0.00443176
-0.00318717
-0.00194573
-0.000870801
0.660118
0.664108
0.673358
0.685112
0.69683
0.707104
0.71492
0.719298
0.719419
0.714772
0.705183
0.69083
0.672214
0.650505
0.626727
0.636784
0.639601
0.646025
0.653777
0.660688
0.665486
0.667293
0.665343
0.659072
0.648212
0.632794
0.613046
0.589338
0.561902
0.531074
0.610298
0.611905
0.615436
0.619146
0.621301
0.620817
0.616977
0.609243
0.5973
0.581109
0.560895
0.537088
0.510302
0.48124
0.450782
0.580533
0.580936
0.581581
0.581313
0.578889
0.573456
0.564492
0.551705
0.535034
0.514653
0.490943
0.464417
0.435671
0.405266
0.373838
0.547484
0.54671
0.54459
0.540568
0.533939
0.524121
0.510805
0.493942
0.473697
0.450427
0.424632
0.396905
0.36789
0.338185
0.308439
0.511277
0.50943
0.504774
0.497381
0.487105
0.473649
0.456911
0.437057
0.414435
0.389515
0.362841
0.334982
0.306504
0.277883
0.24964
0.472245
0.469466
0.462625
0.452402
0.439195
0.422989
0.40387
0.382171
0.358374
0.333015
0.306648
0.279811
0.253009
0.226641
0.201124
0.430932
0.427405
0.418833
0.406443
0.39113
0.373139
0.352707
0.330288
0.306435
0.281686
0.256541
0.231446
0.206795
0.182872
0.159986
0.388113
0.384055
0.374272
0.360445
0.343889
0.325055
0.304276
0.282062
0.258981
0.235552
0.212218
0.189351
0.167263
0.146155
0.126244
0.344794
0.340429
0.329962
0.315424
0.298468
0.279718
0.259572
0.238547
0.217177
0.195903
0.175065
0.154926
0.135691
0.117479
0.100425
0.302188
0.297726
0.287047
0.272389
0.255605
0.237404
0.218197
0.198487
0.17878
0.159471
0.140847
0.123112
0.106409
0.0908047
0.0763696
0.261697
0.257287
0.246779
0.23265
0.216924
0.200324
0.183191
0.165934
0.14895
0.132522
0.11683
0.101989
0.0880778
0.0751238
0.0631568
0.224957
0.220588
0.209946
0.195721
0.180166
0.164084
0.1478
0.13169
0.116123
0.101346
0.0874943
0.074633
0.062786
0.0519343
0.0420598
0.193983
0.190019
0.180426
0.167896
0.154437
0.140749
0.127082
0.113686
0.100798
0.0885706
0.0770811
0.0663697
0.0564488
0.0473194
0.0389472
0.171377
0.16278
0.148991
0.133978
0.119133
0.104726
0.0909329
0.0779819
0.0660258
0.0551079
0.0452057
0.0362696
0.0282362
0.0210325
0.0145858
0.606374
0.578832
0.546844
0.513272
0.476826
0.43626
0.3914
0.342359
0.289077
0.231445
0.169467
0.103252
0.0329819
-0.0410912
-0.118627
-0.199194
-0.282269
-0.367247
-0.453452
-0.540144
-0.626543
-0.711844
-0.795237
-0.875926
-0.953154
-1.02621
-1.09448
-1.15743
-1.21459
-1.26556
-1.31006
-1.3479
-1.37896
-1.40321
-1.4207
-1.43156
-1.43597
-1.43417
-1.42646
-1.41318
-1.3947
-1.37146
-1.34388
-1.31244
-1.27761
-1.23992
-1.19983
-1.15802
-1.11509
-1.07172
0.499755
0.467166
0.433041
0.398301
0.361247
0.320857
0.277229
0.230617
0.181065
0.12856
0.0731466
0.0149564
-0.0458087
-0.108902
-0.174032
-0.240857
-0.308988
-0.377997
-0.447421
-0.516772
-0.585546
-0.653234
-0.719332
-0.783352
-0.844825
-0.903333
-0.958413
-1.00964
-1.0567
-1.0993
-1.13725
-1.17037
-1.19856
-1.22175
-1.23994
-1.25317
-1.26151
-1.2651
-1.26409
-1.25867
-1.24905
-1.23547
-1.21819
-1.19748
-1.17359
-1.14679
-1.1173
-1.08539
-1.05107
-1.01478
0.422763
0.395434
0.366191
0.335495
0.302621
0.267191
0.229288
0.189022
0.146401
0.101416
0.0541293
0.00468329
-0.0467475
-0.0999719
-0.154769
-0.210877
-0.268003
-0.325819
-0.383971
-0.442084
-0.499765
-0.556612
-0.612218
-0.666182
-0.718113
-0.767637
-0.814405
-0.858108
-0.898474
-0.935273
-0.968311
-0.997436
-1.02254
-1.04355
-1.06044
-1.07323
-1.08195
-1.08671
-1.08761
-1.0848
-1.07846
-1.06878
-1.05598
-1.04029
-1.02198
-1.00129
-0.978525
-0.953827
-0.92725
-0.898968
0.345057
0.317877
0.289025
0.258942
0.227213
0.193619
0.158231
0.121164
0.0824834
0.0422577
0.000591661
-0.0423887
-0.0865517
-0.131745
-0.177787
-0.224472
-0.271579
-0.318869
-0.366092
-0.412988
-0.459289
-0.504729
-0.54904
-0.591962
-0.633247
-0.672655
-0.709968
-0.744981
-0.777513
-0.807406
-0.834528
-0.858771
-0.880055
-0.898327
-0.913558
-0.925745
-0.934909
-0.941092
-0.944358
-0.944787
-0.942478
-0.937542
-0.930104
-0.920296
-0.908259
-0.894136
-0.878075
-0.860208
-0.84069
-0.819541
0.282008
0.257771
0.232389
0.206166
0.178774
0.150049
0.120054
0.0888729
0.0565525
0.023131
-0.0113308
-0.0467509
-0.0830256
-0.120028
-0.15762
-0.195653
-0.233969
-0.272396
-0.310755
-0.348857
-0.386509
-0.423518
-0.459685
-0.49482
-0.528733
-0.561244
-0.592182
-0.621388
-0.648719
-0.674046
-0.697258
-0.718263
-0.736987
-0.753375
-0.76739
-0.779016
-0.788253
-0.79512
-0.799653
-0.801902
-0.801935
-0.799829
-0.795676
-0.789577
-0.781643
-0.771988
-0.76074
-0.748009
-0.733968
-0.718545
0.224824
0.20261
0.179516
0.155724
0.131019
0.105322
0.0787058
0.0512555
0.0230265
-0.00592712
-0.0355334
-0.0657055
-0.096347
-0.127358
-0.158636
-0.190071
-0.221544
-0.25293
-0.2841
-0.31492
-0.345258
-0.374981
-0.403957
-0.432057
-0.459157
-0.485139
-0.50989
-0.533309
-0.5553
-0.575782
-0.59468
-0.611934
-0.627493
-0.641319
-0.653388
-0.663684
-0.672205
-0.678959
-0.683965
-0.687252
-0.688858
-0.688829
-0.687219
-0.68409
-0.679506
-0.67354
-0.666271
-0.657767
-0.648139
-0.637358
0.179086
0.159748
0.139819
0.119428
0.0984387
0.0768058
0.0545851
0.0318371
0.00860231
-0.0150815
-0.0391662
-0.0635955
-0.0883077
-0.113237
-0.138312
-0.163451
-0.188571
-0.213587
-0.238411
-0.262953
-0.287122
-0.310826
-0.333974
-0.356476
-0.378245
-0.399196
-0.41925
-0.43833
-0.456368
-0.473301
-0.48907
-0.503628
-0.516933
-0.52895
-0.539655
-0.54903
-0.557065
-0.563759
-0.56912
-0.573159
-0.575899
-0.577367
-0.577596
-0.576627
-0.574505
-0.571277
-0.567
-0.561721
-0.555524
-0.548369
0.140415
0.123513
0.106194
0.0885281
0.0704312
0.0518871
0.0329424
0.0136457
-0.00596715
-0.0258605
-0.0459918
-0.0663129
-0.0867718
-0.107314
-0.127882
-0.148416
-0.168859
-0.18915
-0.209225
-0.22902
-0.248471
-0.267516
-0.286091
-0.304136
-0.321592
-0.338403
-0.354516
-0.36988
-0.38445
-0.398184
-0.411045
-0.423
-0.434022
-0.444088
-0.45318
-0.461287
-0.4684
-0.474518
-0.479644
-0.483785
-0.486953
-0.489164
-0.490439
-0.4908
-0.490275
-0.488895
-0.486696
-0.483706
-0.479985
-0.475489
0.10943
0.0951411
0.0805919
0.0658136
0.0507663
0.035452
0.019905
0.00415902
-0.0117595
-0.0278244
-0.0440057
-0.0602708
-0.0765852
-0.0929131
-0.109217
-0.125459
-0.141598
-0.157594
-0.173403
-0.188984
-0.204295
-0.219294
-0.233941
-0.248193
-0.262013
-0.275363
-0.288205
-0.300506
-0.312235
-0.323361
-0.333857
-0.3437
-0.35287
-0.361347
-0.369117
-0.37617
-0.382497
-0.388094
-0.392959
-0.397095
-0.400504
-0.403195
-0.405178
-0.406467
-0.40708
-0.407032
-0.406346
-0.405038
-0.40315
-0.400636
0.086124
0.0740445
0.0617902
0.0493852
0.0368035
0.0240487
0.0111471
-0.00187536
-0.0149977
-0.0281991
-0.0414562
-0.054744
-0.0680363
-0.0813056
-0.094524
-0.107663
-0.120692
-0.133584
-0.146309
-0.158838
-0.17114
-0.183188
-0.194953
-0.206406
-0.217523
-0.228276
-0.238641
-0.248596
-0.258119
-0.26719
-0.275792
-0.283907
-0.291522
-0.298626
-0.305207
-0.311258
-0.316773
-0.321749
-0.326183
-0.33009
-0.333512
-0.336363
-0.338647
-0.340408
-0.341672
-0.342443
-0.342727
-0.342532
-0.341888
-0.340763
0.0644081
0.0544746
0.0444463
0.0343131
0.024077
0.0137544
0.00336337
-0.00708074
-0.0175631
-0.028068
-0.0385792
-0.0490798
-0.0595524
-0.0699788
-0.0803408
-0.0906197
-0.100797
-0.110853
-0.120771
-0.130529
-0.14011
-0.149495
-0.158666
-0.167604
-0.176292
-0.184715
-0.192855
-0.200697
-0.208228
-0.215434
-0.222304
-0.228825
-0.234988
-0.240784
-0.246206
-0.251247
-0.255903
-0.260169
-0.264043
-0.26753
-0.270662
-0.273424
-0.27578
-0.277714
-0.279252
-0.280423
-0.281237
-0.281692
-0.281803
-0.281539
0.0532679
0.0449954
0.0366598
0.0282786
0.0198373
0.011337
0.00279212
-0.00578161
-0.0143709
-0.0229633
-0.031546
-0.0401066
-0.0486325
-0.057111
-0.0655286
-0.0738718
-0.082127
-0.0902802
-0.0983178
-0.106226
-0.113993
-0.121605
-0.129049
-0.136313
-0.143385
-0.150253
-0.156907
-0.163337
-0.169531
-0.175482
-0.181185
-0.186631
-0.191814
-0.196729
-0.20137
-0.205734
-0.209819
-0.213623
-0.217147
-0.220379
-0.223287
-0.225945
-0.228337
-0.230429
-0.232212
-0.2337
-0.234898
-0.235807
-0.236456
-0.23683
0.0340247
0.0274646
0.0208756
0.0142358
0.00756576
0.000887008
-0.00578991
-0.0124588
-0.0191131
-0.025746
-0.0323508
-0.0389202
-0.0454454
-0.0519175
-0.0583284
-0.0646708
-0.0709368
-0.0771186
-0.0832077
-0.0891954
-0.0950733
-0.100833
-0.106467
-0.111968
-0.117327
-0.122538
-0.127594
-0.132487
-0.137211
-0.141762
-0.146133
-0.150319
-0.154317
-0.158126
-0.161741
-0.165161
-0.168382
-0.171405
-0.174229
-0.176852
-0.179247
-0.181423
-0.183408
-0.185214
-0.186822
-0.188214
-0.189388
-0.19035
-0.19111
-0.191663
0.032214
0.0268699
0.021604
0.0161203
0.0104019
0.00447615
-0.0015449
-0.00752304
-0.0134013
-0.0191239
-0.0247123
-0.0302647
-0.0358076
-0.0413149
-0.0467642
-0.0521494
-0.0574695
-0.0627209
-0.0678974
-0.0729922
-0.0779984
-0.0829099
-0.0877212
-0.0924273
-0.097023
-0.101503
-0.105863