/*--------------------------------*- C++ -*----------------------------------*\
| =========                 |                                                 |
| \\      /  F ield         | OpenFOAM: The Open Source CFD Toolbox           |
|  \\    /   O peration     | Version:  2412                                  |
|   \\  /    A nd           | Website:  www.openfoam.com                      |
|    \\/     M anipulation  |                                                 |
\*---------------------------------------------------------------------------*/
FoamFile
{
    version     2.0;
    format      ascii;
    arch        "LSB;label=32;scalar=64";
    class       surfaceScalarField;
    location    "1000";
    object      phi;
}
// * * * * * * * * * * * * * * * * * * * * * * * * * * * * * * * * * * * * * //

dimensions      [0 3 -1 0 0 0 0];

oriented        oriented;

internalField   nonuniform List<scalar> 
28926
(
0.0127593
4.32936e-05
-4.17552e-05
0.0127555
0.000114045
-0.000110167
0.0127502
0.000168925
-0.000163645
0.0127444
0.000212807
-0.000206979
0.0127387
0.000248083
-0.000242461
0.012734
0.000276066
-0.000271311
0.0127306
0.000297584
-0.000294259
0.0127292
0.000313196
-0.000311745
0.0127299
0.00032333
-0.000324064
0.012733
0.000328399
-0.00033148
0.0127384
0.000328872
-0.000334307
0.0127461
0.000325274
-0.000332882
0.0127554
0.000318284
-0.000327652
0.0127659
0.000308385
-0.000318898
0.000297029
0.0127761
-0.000307176
0.0140996
4.45083e-05
0.0140965
0.00011706
0.0140926
0.000172848
0.0140886
0.000216791
0.0140853
0.000251384
0.0140833
0.000278052
0.0140832
0.000297751
0.0140852
0.000311179
0.0140896
0.000318918
0.0140965
0.000321531
0.0141057
0.000319611
0.0141172
0.000313776
0.0141308
0.000304682
0.0141463
0.000292891
0.000279248
0.0141641
0.0155806
4.52966e-05
0.0155787
0.000118951
0.0155765
0.000175041
0.0155748
0.00021849
0.0155743
0.000251897
0.0155755
0.000276816
0.0155789
0.000294348
0.0155847
0.000305351
0.0155931
0.000310571
0.0156039
0.000310723
0.015617
0.000306535
0.015632
0.000298739
0.0156486
0.00028808
0.0156663
0.000275201
0.000260921
0.0156846
0.0172171
4.55369e-05
0.0172166
0.000119463
0.0172165
0.000175134
0.0172176
0.000217477
0.0172203
0.000249188
0.0172251
0.000271964
0.0172324
0.000287066
0.0172422
0.000295521
0.0172546
0.000298238
0.0172692
0.000296073
0.0172859
0.00028986
0.0173042
0.000280398
0.0173239
0.000268456
0.0173444
0.00025468
0.000239854
0.0173654
0.0190256
4.51755e-05
0.0190267
0.00011831
0.0190291
0.000172782
0.0190332
0.000213398
0.0190394
0.000242945
0.0190481
0.000263271
0.0190594
0.000275801
0.0190732
0.000281728
0.0190893
0.000282109
0.0191074
0.000277925
0.0191272
0.000270093
0.0191481
0.000259459
0.0191698
0.000246803
0.0191917
0.000232757
0.000218036
0.0192135
0.0210239
4.40906e-05
0.0210269
0.000115327
0.021032
0.000167749
0.0210393
0.000206027
0.0210493
0.000233015
0.0210618
0.000250697
0.021077
0.000260649
0.0210945
0.000264208
0.0211141
0.000262551
0.0211353
0.000256737
0.0211576
0.000247726
0.0211807
0.000236368
0.0212041
0.000223416
0.0212274
0.000209465
0.000195153
0.0212503
0.0232321
4.22466e-05
0.0232371
0.000110383
0.0232449
0.000159915
0.0232556
0.000195307
0.0232692
0.000219446
0.0232854
0.000234424
0.0233042
0.000241937
0.0233249
0.000243424
0.0233474
0.000240141
0.0233709
0.000233188
0.0233951
0.000223529
0.0234195
0.000211987
0.0234436
0.000199262
0.0234672
0.000185887
0.000172405
0.02349
0.0256721
3.96337e-05
0.025679
0.000103468
0.0256896
0.000149317
0.0257035
0.000181374
0.0257204
0.000202506
0.02574
0.000214865
0.0257617
0.000220211
0.0257851
0.000220034
0.0258096
0.000215609
0.0258348
0.000208026
0.0258601
0.000198208
0.0258852
0.000186923
0.0259097
0.000174799
0.0259332
0.000162305
0.000149893
0.0259558
0.0283681
3.62899e-05
0.0283769
9.46916e-05
0.02839
0.000136164
0.0284068
0.000164562
0.0284267
0.000182657
0.0284489
0.000192585
0.028473
0.000196108
0.0284984
0.000194709
0.0285244
0.000189632
0.0285505
0.00018192
0.0285762
0.000172428
0.0286013
0.000161841
0.0286254
0.000150705
0.0286483
0.000139412
0.000128323
0.0286699
0.031347
3.22987e-05
0.0313574
8.42667e-05
0.0313728
0.000120809
0.031392
0.000145387
0.0314141
0.000160582
0.0314382
0.000168428
0.0314637
0.000170602
0.0314899
0.0001685
0.0315163
0.000163283
0.0315423
0.000155897
0.0315676
0.000147106
0.031592
0.000137507
0.0316151
0.000127565
0.0316369
0.000117608
0.000107922
0.0316573
0.0346386
2.77797e-05
0.0346504
7.24725e-05
0.0346675
0.000103649
0.0346886
0.000124297
0.0347125
0.000136718
0.0347381
0.000142761
0.0347648
0.000143955
0.0347917
0.000141568
0.0348184
0.000136635
0.0348443
0.000129984
0.0348691
0.000122266
0.0348927
0.000113977
0.0349147
0.000105491
0.0349353
9.70683e-05
8.8925e-05
0.0349543
0.0382756
2.28241e-05
0.0382885
5.9592e-05
0.0383068
8.53057e-05
0.0383288
0.000102303
0.0383531
0.000112416
0.0383787
0.000117188
0.0384047
0.00011792
0.0384306
0.000115691
0.0384558
0.000111379
0.0384801
0.000105685
0.0385032
9.91583e-05
0.038525
9.22118e-05
0.0385453
8.51531e-05
0.0385642
7.81936e-05
7.14987e-05
0.0385816
0.0422944
1.74209e-05
0.0423089
4.51148e-05
0.0423293
6.48759e-05
0.0423535
7.81686e-05
0.0423797
8.6207e-05
0.0424068
9.01031e-05
0.0424339
9.08449e-05
0.0424603
8.92716e-05
0.0424856
8.60708e-05
0.0425095
8.1789e-05
0.0425318
7.68493e-05
0.0425524
7.15702e-05
0.0425714
6.61872e-05
0.0425887
6.08639e-05
5.5725e-05
0.0426045
0.0467348
1.19814e-05
0.0467493
3.06452e-05
0.0467692
4.49649e-05
0.0467924
5.49366e-05
0.0468173
6.13729e-05
0.0468426
6.47945e-05
0.0468676
6.58019e-05
0.0468919
6.49802e-05
0.0469151
6.28501e-05
0.0469371
5.98431e-05
0.0469576
5.62973e-05
0.0469767
5.24683e-05
0.0469944
4.85429e-05
0.0470106
4.46526e-05
4.08906e-05
0.0470254
0.0516503
0.0516727
0.0517003
0.05173
0.0517597
0.0517885
0.0518158
0.0518411
0.0518644
0.0518857
0.0519049
0.0519222
0.0519378
0.0519517
0.0519642
0.0127757
-0.000195184
0.000195606
0.012777
-0.0001709
0.000169596
0.0127804
-0.000146609
0.000143187
0.012786
-0.00012216
0.000116506
0.012794
-9.76347e-05
8.96646e-05
0.0128044
-7.32236e-05
6.28369e-05
0.0128173
-4.90179e-05
3.61287e-05
0.0128327
-2.50963e-05
9.63475e-06
0.0128508
-1.54023e-06
-1.65384e-05
0.0128715
2.1562e-05
-4.22693e-05
0.0128948
4.41193e-05
-6.74298e-05
0.0129207
6.60433e-05
-9.18939e-05
0.012949
8.72433e-05
-0.000115532
0.0129796
0.000107629
-0.000138213
0.0130123
0.000127113
-0.000159808
0.0130468
0.000145616
-0.000180195
0.013083
0.000163064
-0.000199259
0.0131205
0.000179394
-0.000216903
0.013159
0.000194557
-0.000233043
0.0131981
0.000208517
-0.000247621
0.0132375
0.000221254
-0.000260601
0.0132767
0.000232766
-0.000271972
0.0133154
0.000243068
-0.000281752
0.0133532
0.000252189
-0.000289982
0.0133897
0.000260191
-0.000296739
0.0134247
0.000267075
-0.000302072
0.0134579
0.000272948
-0.000306111
0.013489
0.000277904
-0.000308985
0.0135177
0.000282042
-0.000310835
0.0135441
0.000285466
-0.000311808
0.0135679
0.000288287
-0.000312057
0.013589
0.000290618
-0.000311736
0.0136074
0.000292571
-0.000311
0.0136231
0.00029426
-0.000309999
0.0136362
0.000295797
-0.000308879
0.0136467
0.000297287
-0.00030778
0.0136547
0.000298833
-0.000306833
0.0136603
0.000300533
-0.000306163
0.0136638
0.000302477
-0.000305883
0.0136651
0.000304749
-0.000306097
0.0136646
0.000307423
-0.0003069
0.0136624
0.000310566
-0.000308373
0.0136587
0.000314238
-0.000310588
0.0136539
0.000318485
-0.000313603
0.013648
0.000323343
-0.000317464
0.0136413
0.000328846
-0.000322196
0.0136342
0.000334967
-0.000327836
0.0136269
0.00034153
-0.00033423
0.0136198
0.000349049
-0.000341926
0.000355651
0.0136124
-0.000348303
0.0141655
-0.000196564
0.0141685
-0.000173879
0.0141731
-0.000151261
0.0141797
-0.000128718
0.0141883
-0.000106301
0.0141992
-8.4072e-05
0.0142123
-6.20848e-05
0.0142276
-4.03897e-05
0.0142451
-1.90401e-05
0.0142647
1.89792e-06
0.0142865
2.23555e-05
0.0143103
4.22648e-05
0.0143359
6.15595e-05
0.0143634
8.01759e-05
0.0143925
9.80533e-05
0.0144229
0.000115135
0.0144546
0.000131372
0.0144873
0.00014672
0.0145207
0.000161147
0.0145546
0.000174628
0.0145887
0.000187151
0.0146228
0.000198716
0.0146565
0.000209332
0.0146897
0.000219022
0.014722
0.000227822
0.0147533
0.000235775
0.0147833
0.000242941
0.0148119
0.000249384
0.0148387
0.000255176
0.0148638
0.000260392
0.014887
0.000265115
0.0149082
0.000269427
0.0149273
0.000273415
0.0149444
0.000277163
0.0149595
0.000280757
0.0149725
0.000284279
0.0149835
0.000287809
0.0149926
0.000291423
0.0149999
0.000295193
0.0150054
0.000299187
0.0150094
0.000303466
0.0150119
0.000308087
0.015013
0.0003131
0.0150129
0.000318549
0.0150118
0.000324471
0.0150098
0.000330912
0.0150069
0.000337833
0.0150033
0.000345153
0.0149992
0.000353066
0.000361356
0.0149935
0.0156839
-0.000195832
0.015685
-0.000174956
0.015688
-0.000154262
0.015693
-0.00013373
0.0157
-0.000113368
0.0157092
-9.32093e-05
0.0157204
-7.32987e-05
0.0157337
-5.36807e-05
0.015749
-3.43995e-05
0.0157664
-1.55027e-05
0.0157858
2.9675e-06
0.0158071
2.09678e-05
0.0158302
3.8455e-05
0.015855
5.53881e-05
0.0158813
7.17282e-05
0.015909
8.74397e-05
0.0159379
0.000102492
0.0159678
0.00011686
0.0159984
0.000130523
0.0160296
0.000143471
0.016061
0.000155697
0.0160925
0.000167204
0.0161239
0.000178001
0.0161548
0.000188107
0.0161851
0.000197546
0.0162145
0.000206348
0.0162429
0.000214553
0.01627
0.000222204
0.0162959
0.00022935
0.0163202
0.000236046
0.016343
0.000242348
0.0163641
0.000248317
0.0163835
0.000254012
0.0164012
0.000259496
0.0164171
0.000264829
0.0164313
0.000270073
0.0164438
0.000275286
0.0164547
0.000280526
0.0164641
0.000285846
0.016472
0.000291298
0.0164785
0.00029693
0.0164838
0.000302784
0.016488
0.0003089
0.0164912
0.000315313
0.0164937
0.000322053
0.0164954
0.000329147
0.0164966
0.000336611
0.0164973
0.000344464
0.0164977
0.000352685
0.000361298
0.0164978
0.0173647
-0.000195048
0.0173658
-0.000176081
0.0173688
-0.000157268
0.0173737
-0.000138606
0.0173804
-0.000120114
0.017389
-0.00010182
0.0173995
-8.37569e-05
0.0174118
-6.59545e-05
0.0174258
-4.8443e-05
0.0174415
-3.12528e-05
0.0174589
-1.44143e-05
0.0174779
2.03989e-06
0.0174982
1.80787e-05
0.0175199
3.36733e-05
0.0175429
4.87975e-05
0.0175669
6.34282e-05
0.0175918
7.75454e-05
0.0176176
9.1133e-05
0.0176439
0.000104179
0.0176707
0.000116677
0.0176978
0.000128623
0.017725
0.00014002
0.0177521
0.000150877
0.017779
0.000161206
0.0178055
0.000171025
0.0178315
0.000180357
0.0178568
0.00018923
0.0178813
0.000197675
0.017905
0.000205727
0.0179276
0.000213426
0.0179491
0.00022081
0.0179695
0.000227925
0.0179887
0.000234812
0.0180067
0.000241518
0.0180234
0.000248087
0.0180389
0.000254564
0.0180532
0.000260994
0.0180663
0.00026742
0.0180783
0.000273882
0.0180892
0.000280421
0.018099
0.000287073
0.018108
0.000293875
0.018116
0.000300857
0.0181233
0.000308049
0.0181298
0.000315478
0.0181358
0.000323167
0.0181413
0.000331133
0.0181463
0.000339407
0.0181511
0.000347943
0.000356811
0.0181556
0.019211
-0.000192476
0.0192101
-0.000175203
0.0192109
-0.000158091
0.0192134
-0.000141135
0.0192177
-0.000124349
0.0192236
-0.000107755
0.0192312
-9.13741e-05
0.0192405
-7.52286e-05
0.0192514
-5.93396e-05
0.0192639
-4.37288e-05
0.0192779
-2.84172e-05
0.0192933
-1.34255e-05
0.0193102
1.22879e-06
0.0193283
1.55287e-05
0.0193477
2.94592e-05
0.0193681
4.30067e-05
0.0193895
5.616e-05
0.0194117
6.89106e-05
0.0194346
8.12527e-05
0.0194581
9.31835e-05
0.019482
0.000104703
0.0195062
0.000115816
0.0195306
0.000126528
0.0195549
0.00013685
0.0195792
0.000146796
0.0196032
0.000156381
0.0196268
0.000165625
0.0196499
0.00017455
0.0196724
0.00018318
0.0196943
0.000191542
0.0197155
0.000199664
0.0197358
0.000207576
0.0197553
0.000215307
0.0197739
0.00022289
0.0197917
0.000230356
0.0198085
0.000237736
0.0198244
0.000245063
0.0198395
0.000252366
0.0198537
0.000259676
0.0198671
0.000267022
0.0198797
0.00027443
0.0198917
0.000281928
0.019903
0.00028954
0.0199138
0.000297287
0.019924
0.000305192
0.0199339
0.000313272
0.0199435
0.000321544
0.0199529
0.000330024
0.0199621
0.000338732
0.000347628
0.0199713
0.021246
-0.000188235
0.0212435
-0.000172635
0.0212426
-0.000157185
0.0212433
-0.000141878
0.0212457
-0.000126724
0.0212497
-0.000111737
0.0212552
-9.69321e-05
0.0212623
-8.23226e-05
0.0212709
-6.79228e-05
0.0212809
-5.37465e-05
0.0212923
-3.9807e-05
0.021305
-2.61169e-05
0.0213189
-1.2688e-05
0.021334
4.68249e-07
0.0213501
1.33416e-05
0.0213672
2.59236e-05
0.0213851
3.82071e-05
0.0214038
5.01874e-05
0.0214232
6.18611e-05
0.0214432
7.32271e-05
0.0214636
8.42863e-05
0.0214844
9.50416e-05
0.0215054
0.000105498
0.0215266
0.000115664
0.0215479
0.000125548
0.0215691
0.000135161
0.0215902
0.000144518
0.0216111
0.000153634
0.0216318
0.000162524
0.0216521
0.000171209
0.021672
0.000179706
0.0216916
0.000188038
0.0217107
0.000196226
0.0217293
0.000204291
0.0217474
0.000212256
0.021765
0.000220143
0.021782
0.000227976
0.0217986
0.000235777
0.0218147
0.000243567
0.0218304
0.000251368
0.0218456
0.000259201
0.0218605
0.000267084
0.021875
0.000275038
0.0218892
0.000283079
0.0219031
0.000291224
0.0219169
0.000299487
0.0219306
0.000307882
0.0219442
0.000316421
0.0219578
0.000325124
0.000333951
0.0219715
0.023483
-0.000181295
0.0234776
-0.000167261
0.0234738
-0.00015336
0.0234715
-0.000139587
0.0234708
-0.000125947
0.0234715
-0.000112451
0.0234736
-9.91078e-05
0.0234772
-8.59282e-05
0.0234822
-7.29215e-05
0.0234886
-6.00969e-05
0.0234963
-4.7463e-05
0.0235052
-3.50281e-05
0.0235153
-2.27995e-05
0.0235265
-1.0784e-05
0.0235389
1.01326e-06
0.0235522
1.2588e-05
0.0235665
2.39369e-05
0.0235816
3.50577e-05
0.0235975
4.59495e-05
0.0236141
5.66127e-05
0.0236314
6.70488e-05
0.0236491
7.72612e-05
0.0236674
8.72541e-05
0.023686
9.70333e-05
0.023705
0.000106606
0.0237241
0.000115981
0.0237435
0.000125167
0.0237629
0.000134175
0.0237825
0.000143017
0.023802
0.000151705
0.0238214
0.000160254
0.0238408
0.000168677
0.02386
0.000176988
0.0238791
0.000185204
0.023898
0.000193339
0.0239167
0.000201409
0.0239353
0.00020943
0.0239536
0.000217417
0.0239718
0.000225386
0.0239898
0.000233351
0.0240077
0.000241328
0.0240255
0.00024933
0.0240431
0.00025737
0.0240608
0.000265463
0.0240784
0.000273618
0.024096
0.000281849
0.0241137
0.000290166
0.0241316
0.000298576
0.0241496
0.000307096
0.000315708
0.0241678
0.0259459
-0.000171447
0.0259376
-0.00015896
0.0259308
-0.000146588
0.0259256
-0.000134325
0.0259218
-0.000122173
0.0259195
-0.000110141
0.0259186
-9.82328e-05
0.0259191
-8.64556e-05
0.025921
-7.48148e-05
0.0259243
-6.33162e-05
0.0259288
-5.19651e-05
0.0259345
-4.07654e-05
0.0259414
-2.97226e-05
0.0259495
-1.88389e-05
0.0259586
-8.11874e-06
0.0259688
2.43643e-06
0.0259799
1.28238e-05
0.0259919
2.30433e-05
0.0260047
3.30934e-05
0.0260184
4.29764e-05
0.0260327
5.2693e-05
0.0260477
6.22451e-05
0.0260634
7.16365e-05
0.0260795
8.08713e-05
0.0260962
8.99545e-05
0.0261133
9.88916e-05
0.0261307
0.000107689
0.0261486
0.000116355
0.0261667
0.000124896
0.0261851
0.000133321
0.0262037
0.00014164
0.0262225
0.000149863
0.0262415
0.000157998
0.0262606
0.000166057
0.0262799
0.00017405
0.0262993
0.000181988
0.0263189
0.000189881
0.0263386
0.000197741
0.0263584
0.000205578
0.0263783
0.000213404
0.0263984
0.000221228
0.0264187
0.000229061
0.0264392
0.000236912
0.0264598
0.000244792
0.0264807
0.000252708
0.0265019
0.000260668
0.0265234
0.000268683
0.0265452
0.000276756
0.0265674
0.0002849
0.000293104
0.02659
0.0286564
-0.000157945
0.0286444
-0.000146977
0.0286339
-0.000136104
0.0286249
-0.000125321
0.0286174
-0.00011463
0.0286113
-0.000104034
0.0286066
-9.35387e-05
0.0286032
-8.31469e-05
0.0286013
-7.28626e-05
0.0286007
-6.26895e-05
0.0286013
-5.26303e-05
0.0286033
-4.26885e-05
0.0286064
-3.28661e-05
0.0286107
-2.31654e-05
0.0286162
-1.35878e-05
0.0286228
-4.13508e-06
0.0286304
5.19258e-06
0.028639
1.43957e-05
0.0286487
2.34732e-05
0.0286592
3.24273e-05
0.0286707
4.12588e-05
0.0286829
4.99701e-05
0.028696
5.85634e-05
0.0287098
6.70421e-05
0.0287244
7.54097e-05
0.0287396
8.36702e-05
0.0287555
9.18286e-05
0.0287719
9.989e-05
0.028789
0.00010786
0.0288065
0.000115744
0.0288246
0.000123548
0.0288432
0.00013128
0.0288623
0.000138945
0.0288818
0.000146552
0.0289017
0.000154107
0.0289221
0.000161617
0.0289429
0.000169091
0.0289641
0.000176534
0.0289857
0.000183955
0.0290077
0.000191361
0.0290302
0.000198761
0.0290531
0.000206161
0.0290765
0.000213567
0.0291003
0.000220986
0.0291245
0.000228424
0.0291493
0.000235887
0.0291746
0.000243381
0.0292005
0.000250912
0.0292269
0.000258486
0.000266101
0.0292539
0.0316399
-0.000140553
0.0316241
-0.000131137
0.0316098
-0.000121799
0.031597
-0.000112532
0.0315857
-0.000103339
0.0315759
-9.42216e-05
0.0315675
-8.51823e-05
0.0315606
-7.62236e-05
0.0315551
-6.73473e-05
0.0315509
-5.85558e-05
0.0315482
-4.98502e-05
0.0315467
-4.12331e-05
0.0315465
-3.27048e-05
0.0315476
-2.42664e-05
0.03155
-1.59196e-05
0.0315535
-7.66364e-06
0.0315582
5.0048e-07
0.031564
8.57301e-06
0.0315709
1.65552e-05
0.0315789
2.44467e-05
0.0315879
3.22494e-05
0.0315979
3.99646e-05
0.0316089
4.75948e-05
0.0316208
5.51409e-05
0.0316336
6.26069e-05
0.0316473
6.99942e-05
0.0316618
7.73072e-05
0.0316771
8.4548e-05
0.0316933
9.17217e-05
0.0317102
9.8831e-05
0.0317279
0.000105881
0.0317463
0.000112875
0.0317654
0.000119819
0.0317852
0.000126717
0.0318058
0.000133573
0.031827
0.000140393
0.0318489
0.000147182
0.0318715
0.000153945
0.0318948
0.000160687
0.0319188
0.000167346
0.0319434
0.000174079
0.0319688
0.000180822
0.0319948
0.000187539
0.0320216
0.000194252
0.032049
0.000200971
0.0320772
0.000207701
0.0321061
0.000214448
0.0321358
0.000221214
0.0321663
0.000228005
0.000234819
0.0321976
0.0349324
-0.000118643
0.034912
-0.000110822
0.0348933
-0.000103062
0.0348761
-9.536e-05
0.0348605
-8.77148e-05
0.0348464
-8.0129e-05
0.0348338
-7.26033e-05
0.0348227
-6.5139e-05
0.0348131
-5.77383e-05
0.034805
-5.04011e-05
0.0347983
-4.313e-05
0.034793
-3.5925e-05
0.034789
-2.87868e-05
0.0347865
-2.17163e-05
0.0347853
-1.47133e-05
0.0347854
-7.77864e-06
0.0347868
-9.11824e-07
0.0347895
5.88717e-06
0.0347934
1.26193e-05
0.0347986
1.9285e-05
0.034805
2.58856e-05
0.0348125
3.24213e-05
0.0348212
3.88946e-05
0.034831
4.53065e-05
0.034842
5.16592e-05
0.034854
5.79537e-05
0.0348671
6.41936e-05
0.0348813
7.03803e-05
0.0348965
7.65168e-05
0.0349127
8.2605e-05
0.03493
8.86492e-05
0.0349482
9.46511e-05
0.0349674
0.000100614
0.0349876
0.000106542
0.0350087
0.000112437
0.0350308
0.000118304
0.0350538
0.000124146
0.0350778
0.000129963
0.0351027
0.000135773
0.0351286
0.000141451
0.0351555
0.000147205
0.0351833
0.000153011
0.035212
0.000158805
0.0352417
0.000164595
0.0352723
0.000170362
0.0353039
0.000176127
0.0353364
0.000181899
0.03537
0.000187678
0.0354045
0.00019347
0.000199278
0.03544
0.0385551
-9.21415e-05
0.0385303
-8.60122e-05
0.0385072
-7.99304e-05
0.0384857
-7.38962e-05
0.0384659
-6.79055e-05
0.0384478
-6.19616e-05
0.0384312
-5.60613e-05
0.0384163
-5.02064e-05
0.038403
-4.43973e-05
0.0383912
-3.86345e-05
0.038381
-3.29195e-05
0.0383723
-2.72537e-05
0.0383652
-2.1638e-05
0.0383595
-1.60724e-05
0.0383554
-1.05558e-05
0.0383527
-5.08946e-06
0.0383514
3.27724e-07
0.0383516
5.69599e-06
0.0383532
1.10147e-05
0.0383562
1.62856e-05
0.0383606
2.15091e-05
0.0383663
2.66861e-05
0.0383734
3.18173e-05
0.0383818
3.69034e-05
0.0383915
4.19474e-05
0.0384025
4.69491e-05
0.0384148
5.19099e-05
0.0384284
5.68325e-05
0.0384432
6.1716e-05
0.0384592
6.65625e-05
0.0384765
7.13741e-05
0.038495
7.61533e-05
0.0385147
8.09018e-05
0.0385356
8.56228e-05
0.0385577
9.03171e-05
0.038581
9.49866e-05
0.0386056
9.96348e-05
0.0386313
0.000104259
0.0386582
0.000108875
0.0386862
0.000113429
0.0387154
0.000117965
0.0387459
0.000122559
0.0387775
0.000127179
0.0388103
0.000131794
0.0388443
0.000136396
0.0388794
0.000140979
0.0389157
0.000145589
0.0389532
0.00015017
0.038992
0.00015475
0.000159335
0.0390319
0.0425725
-6.01918e-05
0.0425424
-5.58634e-05
0.042514
-5.1574e-05
0.0424875
-4.73184e-05
0.0424627
-4.30933e-05
0.0424396
-3.88991e-05
0.0424183
-3.47355e-05
0.0423987
-3.06043e-05
0.0423808
-2.65081e-05
0.0423646
-2.24475e-05
0.0423501
-1.84251e-05
0.0423373
-1.44403e-05
0.0423261
-1.04923e-05
0.0423166
-6.58281e-06
0.0423088
-2.71106e-06
0.0423026
1.12255e-06
0.042298
4.91954e-06
0.042295
8.67851e-06
0.0422936
1.24019e-05
0.0422938
1.60886e-05
0.0422956
1.9741e-05
0.0422989
2.33578e-05
0.0423038
2.69408e-05
0.0423102
3.04914e-05
0.0423181
3.40086e-05
0.0423276
3.74957e-05
0.0423386
4.09514e-05
0.042351
4.43797e-05
0.0423649
4.77771e-05
0.0423804
5.11454e-05
0.0423972
5.44886e-05
0.0424156
5.78026e-05
0.0424354
6.10922e-05
0.0424567
6.43574e-05
0.0424794
6.76016e-05
0.0425036
7.08238e-05
0.0425292
7.40262e-05
0.0425562
7.72093e-05
0.0425847
8.03731e-05
0.0426146
8.35206e-05
0.0426459
8.66521e-05
0.0426787
8.98014e-05
0.0427129
9.29665e-05
0.0427486
9.61256e-05
0.0427857
9.92972e-05
0.0428242
0.000102456
0.0428641
0.000105644
0.0429055
0.000108806
0.0429483
0.000111949
0.000115084
0.0429926
0.0469887
-2.34876e-05
0.0469539
-2.10894e-05
0.0469211
-1.87133e-05
0.0468901
-1.6363e-05
0.0468611
-1.40406e-05
0.0468339
-1.17477e-05
0.0468087
-9.48387e-06
0.0467853
-7.2472e-06
0.0467638
-5.03805e-06
0.0467443
-2.85425e-06
0.0467265
-6.94951e-07
0.0467107
1.43492e-06
0.0466966
3.53577e-06
0.0466844
5.60689e-06
0.0466741
7.65046e-06
0.0466655
9.66547e-06
0.0466588
1.16547e-05
0.0466539
1.3615e-05
0.0466507
1.55496e-05
0.0466493
1.74572e-05
0.0466497
1.93391e-05
0.0466519
2.11955e-05
0.0466558
2.30273e-05
0.0466615
2.48339e-05
0.0466689
2.66179e-05
0.046678
2.83777e-05
0.0466888
3.01162e-05
0.0467014
3.18321e-05
0.0467156
3.35279e-05
0.0467316
3.52033e-05
0.0467492
3.68605e-05
0.0467685
3.84956e-05
0.0467895
4.01124e-05
0.0468121
4.17107e-05
0.0468364
4.32944e-05
0.0468624
4.48608e-05
0.04689
4.64134e-05
0.0469193
4.79515e-05
0.0469502
4.94768e-05
0.0469827
5.09888e-05
0.0470169
5.24891e-05
0.0470527
5.3983e-05
0.0470902
5.54862e-05
0.0471293
5.69898e-05
0.0471701
5.84902e-05
0.0472126
5.99895e-05
0.0472567
6.14864e-05
0.0473025
6.29934e-05
0.04735
6.44768e-05
6.59696e-05
0.0473991
0.0519206
0.051879
0.0518396
0.0518023
0.051767
0.0517339
0.0517028
0.0516737
0.0516467
0.0516218
0.0515989
0.051578
0.0515592
0.0515425
0.0515277
0.051515
0.0515043
0.0514956
0.051489
0.0514843
0.0514816
0.0514809
0.0514822
0.0514854
0.0514907
0.0514979
0.051507
0.0515182
0.0515312
0.0515463
0.0515632
0.0515822
0.051603
0.0516258
0.0516506
0.0516772
0.0517058
0.0517363
0.0517687
0.0518031
0.0518393
0.0518775
0.0519176
0.0519596
0.0520036
0.0520495
0.0520973
0.0521472
0.0521989
0.0522526
0.0135856
-0.00011536
0.000142202
0.0135579
-0.000125082
0.000152761
0.0135289
-0.000134069
0.000163068
0.0134995
-0.000142162
0.000171548
0.0134704
-0.000149008
0.000178152
0.0134418
-0.00015464
0.000183186
0.0134141
-0.000159177
0.000186863
0.0133875
-0.000162654
0.000189275
0.0133621
-0.000165118
0.000190509
0.0133381
-0.000166618
0.000190681
0.0133154
-0.00016724
0.000189914
0.0132941
-0.000167074
0.000188327
0.0132743
-0.000166204
0.000186029
0.0132559
-0.000164716
0.000183126
0.0132389
-0.000162691
0.000179714
0.0132232
-0.000160207
0.000175884
0.0132088
-0.000157335
0.000171718
0.0131957
-0.000154142
0.00016729
0.0131837
-0.000150686
0.000162666
0.0131728
-0.000147022
0.000157903
0.013163
-0.000143199
0.000153055
0.0131541
-0.000139266
0.000148168
0.013146
-0.000135264
0.000143282
0.0131388
-0.00013124
0.000138433
0.0131324
-0.000127221
0.000133649
0.0131267
-0.000123229
0.000128954
0.0131216
-0.000119276
0.000124364
0.0131171
-0.000115385
0.000119892
0.0131131
-0.000111576
0.000115553
0.0131096
-0.000107859
0.000111354
0.0131066
-0.000104244
0.000107303
0.0131039
-0.000100738
0.000103404
0.0131016
-9.73491e-05
9.96598e-05
0.0130996
-9.40876e-05
9.60694e-05
0.0130979
-9.09517e-05
9.26355e-05
0.0130965
-8.79273e-05
8.93589e-05
0.0130953
-8.49894e-05
8.62221e-05
0.0130942
-8.21682e-05
8.32225e-05
0.0130933
-7.95039e-05
8.03748e-05
0.0130926
-7.69773e-05
7.76795e-05
0.0130921
-7.45775e-05
7.51325e-05
0.0130917
-7.22984e-05
7.27266e-05
0.0130913
-7.01341e-05
7.04516e-05
0.0130911
-6.80814e-05
6.83019e-05
0.013091
-6.61404e-05
6.62757e-05
0.0130909
-6.43094e-05
6.43698e-05
0.0130909
-6.25853e-05
6.25801e-05
0.013091
-6.09649e-05
6.09022e-05
0.0130911
-5.94452e-05
5.93322e-05
0.0130913
-5.80235e-05
5.78668e-05
0.0130914
-5.66973e-05
5.65026e-05
0.0130917
-5.54646e-05
5.52364e-05
0.0130919
-5.43232e-05
5.40651e-05
0.0130922
-5.3271e-05
5.29865e-05
0.0130925
-5.23067e-05
5.19984e-05
0.0130929
-5.1429e-05
5.10994e-05
0.0130932
-5.0637e-05
5.02883e-05
0.0130936
-4.99302e-05
4.9564e-05
0.013094
-4.93079e-05
4.8925e-05
0.0130944
-4.87701e-05
4.83703e-05
0.0130948
-4.83176e-05
4.79007e-05
0.0130952
-4.7952e-05
4.75179e-05
0.0130957
-4.76756e-05
4.72237e-05
0.0130961
-4.74919e-05
4.70209e-05
0.0130966
-4.74038e-05
4.69131e-05
0.0130971
-4.74215e-05
4.69053e-05
0.0130977
-4.75337e-05
4.6997e-05
0.0130982
-4.77683e-05
4.72242e-05
-4.80998e-05
4.75336e-05
0.0149638
-8.56261e-05
0.0149345
-9.57659e-05
0.0149054
-0.000105008
0.0148767
-0.000113406
0.0148485
-0.000120798
0.014821
-0.000127136
0.0147943
-0.000132474
0.0147685
-0.00013686
0.0147437
-0.00014035
0.01472
-0.000142967
0.0146976
-0.000144772
0.0146763
-0.000145833
0.0146563
-0.000146216
0.0146376
-0.000145989
0.0146201
-0.000145219
0.0146039
-0.000143969
0.0145889
-0.000142301
0.014575
-0.000140273
0.0145623
-0.00013794
0.0145506
-0.000135332
0.0145399
-0.000132505
0.0145301
-0.000129502
0.0145212
-0.000126351
0.0145131
-0.000123147
0.0145058
-0.000119917
0.0144993
-0.000116682
0.0144934
-0.000113402
0.0144881
-0.000110129
0.0144834
-0.000106886
0.0144793
-0.000103682
0.0144755
-0.000100531
0.0144723
-9.74487e-05
0.0144694
-9.4444e-05
0.0144668
-9.15258e-05
0.0144645
-8.86949e-05
0.0144626
-8.59496e-05
0.0144609
-8.33191e-05
0.0144595
-8.07805e-05
0.0144583
-7.83166e-05
0.0144573
-7.59642e-05
0.0144564
-7.37227e-05
0.0144557
-7.15872e-05
0.0144552
-6.95546e-05
0.0144547
-6.76231e-05
0.0144543
-6.57901e-05
0.0144541
-6.40541e-05
0.0144539
-6.24138e-05
0.0144538
-6.08679e-05
0.0144538
-5.94144e-05
0.0144538
-5.80512e-05
0.0144539
-5.6777e-05
0.014454
-5.55905e-05
0.0144542
-5.44904e-05
0.0144544
-5.34753e-05
0.0144546
-5.25444e-05
0.0144549
-5.16969e-05
0.0144552
-5.09324e-05
0.0144555
-5.02507e-05
0.0144559
-4.96519e-05
0.0144562
-4.91366e-05
0.0144566
-4.87058e-05
0.014457
-4.83616e-05
0.0144575
-4.81063e-05
0.0144579
-4.79439e-05
0.0144584
-4.7877e-05
0.0144589
-4.79179e-05
0.0144594
-4.80517e-05
0.0144599
-4.83172e-05
-4.86923e-05
0.0164735
-6.13666e-05
0.0164491
-7.13901e-05
0.0164246
-8.04614e-05
0.0163998
-8.86698e-05
0.0163751
-9.60268e-05
0.0163505
-0.000102523
0.0163262
-0.000108176
0.0163023
-0.00011302
0.0162791
-0.000117089
0.0162565
-0.000120413
0.0162348
-0.000123031
0.0162139
-0.000124988
0.016194
-0.000126334
0.0161752
-0.000127115
0.0161573
-0.000127383
0.0161405
-0.000127184
0.0161248
-0.000126567
0.0161101
-0.000125577
0.0160964
-0.00012426
0.0160837
-0.000122635
0.016072
-0.000120755
0.0160611
-0.000118656
0.0160512
-0.00011636
0.016042
-0.000113957
0.0160335
-0.000111466
0.0160258
-0.000108971
0.0160188
-0.000106392
0.0160124
-0.000103772
0.0160067
-0.00010116
0.0160016
-9.85231e-05
0.0159969
-9.58796e-05
0.0159927
-9.32608e-05
0.0159889
-9.0677e-05
0.0159855
-8.81287e-05
0.0159825
-8.56372e-05
0.0159798
-8.32303e-05
0.0159774
-8.0912e-05
0.0159753
-7.86812e-05
0.0159735
-7.65178e-05
0.0159719
-7.44094e-05
0.0159706
-7.23707e-05
0.0159694
-7.04125e-05
0.0159684
-6.85394e-05
0.0159675
-6.67518e-05
0.0159668
-6.50487e-05
0.0159661
-6.34294e-05
0.0159656
-6.18939e-05
0.0159652
-6.0442e-05
0.0159648
-5.90737e-05
0.0159646
-5.77887e-05
0.0159644
-5.65857e-05
0.0159643
-5.54637e-05
0.0159642
-5.44216e-05
0.0159642
-5.34591e-05
0.0159642
-5.25757e-05
0.0159643
-5.17715e-05
0.0159644
-5.10464e-05
0.0159645
-5.04009e-05
0.0159647
-4.98355e-05
0.0159649
-4.93514e-05
0.0159652
-4.89499e-05
0.0159655
-4.86334e-05
0.0159658
-4.84045e-05
0.0159661
-4.82671e-05
0.0159664
-4.82242e-05
0.0159668
-4.82844e-05
0.0159672
-4.84433e-05
0.0159676
-4.87246e-05
-4.90947e-05
0.0181352
-4.10196e-05
0.0181138
-4.99912e-05
0.0180917
-5.83057e-05
0.018069
-6.59655e-05
0.0180459
-7.29882e-05
0.0180228
-7.93691e-05
0.0179997
-8.51006e-05
0.0179769
-9.01875e-05
0.0179544
-9.4643e-05
0.0179325
-9.84835e-05
0.0179112
-0.000101729
0.0178906
-0.000104406
0.0178708
-0.000106543
0.0178519
-0.000108172
0.0178338
-0.000109329
0.0178167
-0.000110046
0.0178005
-0.00011036
0.0177852
-0.000110305
0.0177709
-0.000109908
0.0177574
-0.000109203
0.0177449
-0.000108227
0.0177333
-0.000107011
0.0177225
-0.000105585
0.0177125
-0.000103977
0.0177032
-0.000102195
0.0176946
-0.000100361
0.0176867
-9.84696e-05
0.0176794
-9.65043e-05
0.0176728
-9.45128e-05
0.0176667
-9.24647e-05
0.0176612
-9.03742e-05
0.0176562
-8.82767e-05
0.0176517
-8.61781e-05
0.0176477
-8.40701e-05
0.017644
-8.19846e-05
0.0176407
-7.99349e-05
0.0176377
-7.79334e-05
0.017635
-7.59852e-05
0.0176326
-7.40935e-05
0.0176305
-7.22505e-05
0.0176286
-7.04575e-05
0.0176269
-6.87209e-05
0.0176254
-6.70468e-05
0.0176241
-6.54393e-05
0.0176229
-6.39e-05
0.0176219
-6.24299e-05
0.017621
-6.103e-05
0.0176203
-5.97012e-05
0.0176197
-5.84442e-05
0.0176191
-5.72595e-05
0.0176187
-5.61473e-05
0.0176184
-5.51076e-05
0.0176181
-5.41406e-05
0.0176179
-5.32462e-05
0.0176177
-5.2425e-05
0.0176176
-5.16772e-05
0.0176176
-5.10037e-05
0.0176176
-5.04053e-05
0.0176176
-4.98832e-05
0.0176177
-4.94388e-05
0.0176178
-4.90741e-05
0.017618
-4.87915e-05
0.0176182
-4.85939e-05
0.0176184
-4.84853e-05
0.0176186
-4.84687e-05
0.0176189
-4.85525e-05
0.0176192
-4.87341e-05
0.0176195
-4.90321e-05
-4.94155e-05
0.0199542
-2.394e-05
0.0199362
-3.1923e-05
0.0199173
-3.94607e-05
0.0198979
-4.65423e-05
0.0198781
-5.31501e-05
0.0198579
-5.92638e-05
0.0198377
-6.4871e-05
0.0198175
-6.99676e-05
0.0197974
-7.45557e-05
0.0197776
-7.86413e-05
0.0197581
-8.22341e-05
0.019739
-8.53482e-05
0.0197205
-8.80009e-05
0.0197025
-9.02126e-05
0.0196852
-9.20059e-05
0.0196685
-9.34049e-05
0.0196526
-9.44353e-05
0.0196374
-9.51237e-05
0.019623
-9.54878e-05
0.0196094
-9.55548e-05
0.0195965
-9.53507e-05
0.0195844
-9.49002e-05
0.019573