/*--------------------------------*- C++ -*----------------------------------*\
| =========                 |                                                 |
| \\      /  F ield         | OpenFOAM: The Open Source CFD Toolbox           |
|  \\    /   O peration     | Version:  2412                                  |
|   \\  /    A nd           | Website:  www.openfoam.com                      |
|    \\/     M anipulation  |                                                 |
\*---------------------------------------------------------------------------*/
FoamFile
{
    version     2.0;
    format      ascii;
    arch        "LSB;label=32;scalar=64";
    class       volVectorField;
    location    "1000";
    object      U;
}
// * * * * * * * * * * * * * * * * * * * * * * * * * * * * * * * * * * * * * //

dimensions      [0 1 -1 0 0 0 0];

internalField   nonuniform List<vector> 
14620
(
(4.99979 0.00600015 0)
(4.99889 0.0176041 0)
(4.99708 0.0290215 0)
(4.9948 0.0407057 0)
(4.99247 0.0528551 0)
(4.99037 0.0655379 0)
(4.98873 0.0787464 0)
(4.98774 0.0924055 0)
(4.98754 0.106383 0)
(4.98825 0.120509 0)
(4.98989 0.134598 0)
(4.99243 0.148444 0)
(4.99575 0.161931 0)
(4.99973 0.174674 0)
(5.00382 0.18741 0)
(4.99985 0.00619076 0)
(4.99922 0.018151 0)
(4.99797 0.0298438 0)
(4.99647 0.0416946 0)
(4.9951 0.0538746 0)
(4.9941 0.0664218 0)
(4.99366 0.0792997 0)
(4.99394 0.0924108 0)
(4.99504 0.105611 0)
(4.99701 0.118732 0)
(4.99985 0.131599 0)
(5.00352 0.144052 0)
(5.00797 0.155967 0)
(5.01312 0.167238 0)
(5.01901 0.177953 0)
(4.99991 0.00633105 0)
(4.99955 0.0185417 0)
(4.99887 0.0303849 0)
(4.99817 0.0422517 0)
(4.99774 0.0542864 0)
(4.9978 0.0665031 0)
(4.9985 0.0788479 0)
(4.99994 0.0912154 0)
(5.00218 0.103466 0)
(5.00524 0.115445 0)
(5.00906 0.127005 0)
(5.01357 0.138009 0)
(5.01867 0.148357 0)
(5.02418 0.157927 0)
(5.03003 0.166766 0)
(4.99999 0.00640321 0)
(4.99988 0.0187328 0)
(4.99977 0.0305898 0)
(4.99984 0.0423253 0)
(5.00032 0.0540573 0)
(5.00137 0.0657812 0)
(5.0031 0.0774315 0)
(5.00555 0.0889025 0)
(5.00875 0.100065 0)
(5.01266 0.110786 0)
(5.01721 0.120945 0)
(5.02231 0.130443 0)
(5.02784 0.139218 0)
(5.03368 0.147207 0)
(5.03977 0.154507 0)
(5.00003 0.00639439 0)
(5.0002 0.0186846 0)
(5.00063 0.0303964 0)
(5.00144 0.0418353 0)
(5.00275 0.053094 0)
(5.00468 0.0641552 0)
(5.00727 0.0749509 0)
(5.01055 0.0853851 0)
(5.01447 0.0953502 0)
(5.01898 0.104744 0)
(5.02397 0.113483 0)
(5.02934 0.121508 0)
(5.03496 0.12879 0)
(5.0407 0.1353 0)
(5.04651 0.141139 0)
(5.00009 0.00629231 0)
(5.0005 0.0183612 0)
(5.00142 0.0297523 0)
(5.00288 0.0407226 0)
(5.00491 0.0513438 0)
(5.00756 0.0615935 0)
(5.01085 0.0714111 0)
(5.01473 0.0807198 0)
(5.01914 0.089441 0)
(5.02399 0.0975076 0)
(5.02919 0.104874 0)
(5.03461 0.111518 0)
(5.04017 0.117445 0)
(5.04573 0.122659 0)
(5.05128 0.127277 0)
(5.00014 0.00608635 0)
(5.00076 0.0177373 0)
(5.00211 0.0286254 0)
(5.00411 0.0389595 0)
(5.00671 0.0487957 0)
(5.00991 0.0581144 0)
(5.01367 0.06687 0)
(5.01793 0.0750099 0)
(5.02259 0.0824872 0)
(5.02755 0.0892701 0)
(5.03271 0.0953469 0)
(5.03796 0.100725 0)
(5.0432 0.105437 0)
(5.04835 0.109505 0)
(5.05339 0.113043 0)
(5.00018 0.00577308 0)
(5.00096 0.0168026 0)
(5.00265 0.0270079 0)
(5.00506 0.0365526 0)
(5.00808 0.0454829 0)
(5.01163 0.053789 0)
(5.01566 0.0614458 0)
(5.02006 0.0684294 0)
(5.02475 0.0747251 0)
(5.02961 0.0803326 0)
(5.03454 0.0852689 0)
(5.03947 0.0895649 0)
(5.04431 0.093268 0)
(5.049 0.0964174 0)
(5.05354 0.09912 0)
(5.00021 0.00535451 0)
(5.00111 0.0155648 0)
(5.00302 0.0249219 0)
(5.00571 0.0335495 0)
(5.00897 0.0414872 0)
(5.01269 0.0487361 0)
(5.01679 0.0552906 0)
(5.02116 0.0611515 0)
(5.0257 0.0663309 0)
(5.03031 0.0708539 0)
(5.03491 0.0747588 0)
(5.03941 0.0780925 0)
(5.04376 0.0809117 0)
(5.04791 0.0832635 0)
(5.05186 0.0852422 0)
(5.00023 0.00483905 0)
(5.00119 0.0140498 0)
(5.00324 0.022417 0)
(5.00606 0.030033 0)
(5.00939 0.0369374 0)
(5.01309 0.0431466 0)
(5.01706 0.0486753 0)
(5.02121 0.0535449 0)
(5.02542 0.057786 0)
(5.02962 0.0614381 0)
(5.03373 0.0645488 0)
(5.0377 0.0671705 0)
(5.04151 0.06936 0)
(5.04509 0.0711645 0)
(5.04849 0.0726657 0)
(5.00023 0.00424028 0)
(5.00122 0.0122994 0)
(5.0033 0.0195661 0)
(5.00614 0.0261005 0)
(5.00943 0.0319318 0)
(5.01303 0.0370823 0)
(5.01682 0.0415807 0)
(5.02071 0.0454652 0)
(5.0246 0.048782 0)
(5.02841 0.0515832 0)
(5.03209 0.0539242 0)
(5.03559 0.0558606 0)
(5.0389 0.0574479 0)
(5.04197 0.058732 0)
(5.04485 0.0597776 0)
(5.00023 0.00357277 0)
(5.00121 0.0103547 0)
(5.00325 0.0164609 0)
(5.00597 0.0219442 0)
(5.00905 0.0268277 0)
(5.01233 0.0311284 0)
(5.01572 0.0348707 0)
(5.01913 0.0380889 0)
(5.02248 0.0408248 0)
(5.02573 0.043125 0)
(5.02884 0.0450386 0)
(5.03178 0.0466146 0)
(5.03454 0.0479013 0)
(5.0371 0.0489388 0)
(5.03949 0.0497808 0)
(5.00023 0.00284314 0)
(5.00121 0.00822477 0)
(5.00327 0.013027 0)
(5.006 0.017276 0)
(5.00904 0.0209984 0)
(5.01222 0.0242236 0)
(5.01544 0.0269856 0)
(5.01862 0.0293248 0)
(5.0217 0.0312858 0)
(5.02462 0.0329144 0)
(5.02736 0.0342551 0)
(5.0299 0.0353493 0)
(5.03225 0.0362355 0)
(5.0344 0.0369456 0)
(5.03637 0.0375158 0)
(5.00021 0.00204205 0)
(5.0011 0.00606569 0)
(5.00295 0.009916 0)
(5.00535 0.0134731 0)
(5.00798 0.0166696 0)
(5.01068 0.0194877 0)
(5.01339 0.0219327 0)
(5.01604 0.0240228 0)
(5.0186 0.0257861 0)
(5.02102 0.0272569 0)
(5.0233 0.028472 0)
(5.02543 0.0294674 0)
(5.0274 0.0302768 0)
(5.02921 0.0309298 0)
(5.03087 0.0314565 0)
(5.00045 0.000812469 0)
(5.0021 0.0025113 0)
(5.00467 0.00431404 0)
(5.00756 0.00613746 0)
(5.01048 0.00796626 0)
(5.01333 0.0096731 0)
(5.01606 0.0112062 0)
(5.01862 0.0125528 0)
(5.02098 0.0137191 0)
(5.02314 0.0147188 0)
(5.02511 0.0155688 0)
(5.02688 0.0162866 0)
(5.02847 0.0168892 0)
(5.0299 0.0173927 0)
(5.03118 0.0178129 0)
(5.00807 0.195718 0)
(5.01312 0.202348 -5.08075e-23)
(5.01902 0.209249 5.08978e-23)
(5.02538 0.216388 -2.331e-20)
(5.03235 0.223679 -1.15488e-20)
(5.04007 0.230907 -2.34302e-22)
(5.0486 0.237982 1.51262e-22)
(5.05794 0.244819 0)
(5.06811 0.251336 5.63563e-21)
(5.07911 0.257461 -5.87568e-21)
(5.09096 0.263109 5.13317e-23)
(5.10363 0.268189 -2.80408e-21)
(5.1171 0.272609 -1.04928e-21)
(5.1313 0.276276 1.5105e-21)
(5.14618 0.279097 -1.32461e-21)
(5.16166 0.280984 4.63019e-21)
(5.17764 0.281855 -3.30452e-21)
(5.19399 0.281636 5.50523e-23)
(5.2106 0.280263 0)
(5.22732 0.277688 2.87353e-21)
(5.244 0.273877 3.29063e-21)
(5.26049 0.268812 -7.83347e-21)
(5.27664 0.262495 0)
(5.29229 0.254938 -2.53662e-21)
(5.30729 0.246203 6.74951e-19)
(5.32152 0.236233 -6.71401e-19)
(5.33485 0.225153 -4.42428e-23)
(5.34718 0.213064 -9.87802e-23)
(5.35842 0.200064 1.31273e-20)
(5.36848 0.186262 0)
(5.37732 0.171772 0)
(5.38489 0.156713 -1.53975e-20)
(5.39117 0.141207 -2.91606e-20)
(5.39615 0.125375 -2.29354e-22)
(5.39985 0.109339 2.97674e-20)
(5.40228 0.0932171 4.69353e-22)
(5.40347 0.0771234 4.71898e-22)
(5.40347 0.061167 -9.41681e-22)
(5.40234 0.0454509 -3.14345e-20)
(5.40014 0.030071 -3.29763e-20)
(5.39694 0.0151154 -3.11502e-20)
(5.39283 0.000663475 -4.45447e-22)
(5.38787 -0.0132145 9.78918e-24)
(5.38217 -0.026459 4.35676e-22)
(5.37582 -0.0390199 2.06354e-22)
(5.36891 -0.0508704 -4.06299e-22)
(5.36155 -0.0619583 2.92307e-21)
(5.35383 -0.0724412 -9.30731e-23)
(5.34592 -0.0817002 9.30703e-23)
(5.33783 -0.0926846 0)
(5.02487 0.18665 -3.94114e-23)
(5.03074 0.19383 3.94686e-23)
(5.037 0.200954 0)
(5.04354 0.207994 9.62214e-21)
(5.05054 0.214932 0)
(5.05816 0.22172 6.35964e-21)
(5.06639 0.228296 -9.91259e-23)
(5.07522 0.234594 6.9024e-23)
(5.08464 0.240549 -1.59034e-21)
(5.09465 0.246076 -2.50948e-21)
(5.10522 0.251083 -3.48989e-23)
(5.11633 0.255487 0)
(5.12794 0.259207 0)
(5.14002 0.262162 -3.0783e-22)
(5.1525 0.264279 -1.64932e-21)
(5.16532 0.265486 -2.14921e-21)
(5.17842 0.265725 -1.06373e-22)
(5.1917 0.264943 1.06024e-22)
(5.20508 0.263101 -7.4629e-23)
(5.21848 0.260174 -2.54117e-21)
(5.23179 0.25615 -2.99736e-21)
(5.24492 0.251036 6.36159e-21)
(5.25777 0.244849 1.64236e-21)
(5.27024 0.237625 -3.12216e-23)
(5.28225 0.229414 1.0128e-17)
(5.2937 0.220282 -1.01005e-17)
(5.30451 0.210299 2.05862e-21)
(5.3146 0.199548 1.5341e-22)
(5.32389 0.188114 -8.51297e-22)
(5.33235 0.176093 0)
(5.33991 0.163581 -5.28966e-21)
(5.34655 0.150678 1.06905e-20)
(5.35224 0.137484 1.21251e-20)
(5.35697 0.124099 7.35426e-22)
(5.36073 0.110619 -2.39687e-20)
(5.36354 0.0971372 1.08532e-20)
(5.3654 0.0837427 0)
(5.36634 0.0705186 2.26571e-20)
(5.36638 0.0575422 -2.2637e-20)
(5.36556 0.0448838 2.2916e-20)
(5.36393 0.0326062 -2.31182e-20)
(5.36153 0.0207647 7.38674e-22)
(5.35841 0.00940625 2.14635e-20)
(5.35461 -0.00142939 2.14681e-20)
(5.3502 -0.0117177 -2.13974e-20)
(5.34522 -0.0214121 3.46371e-22)
(5.33972 -0.0306156 2.21625e-20)
(5.33373 -0.0394681 0)
(5.32731 -0.0476867 -7.6942e-23)
(5.32043 -0.0555613 7.69306e-23)
(5.03534 0.173521 -3.02275e-23)
(5.0404 0.17881 -2.61562e-23)
(5.0459 0.183895 5.64937e-23)
(5.05175 0.188813 0)
(5.05803 0.193562 0)
(5.06481 0.198102 -1.01312e-20)
(5.07206 0.202385 0)
(5.07979 0.206366 0)
(5.08798 0.210001 -5.52367e-21)
(5.09664 0.213241 3.83241e-21)
(5.10576 0.216048 -2.48148e-23)
(5.11531 0.21838 -4.05232e-24)
(5.12526 0.220193 2.33018e-23)
(5.13558 0.221443 -9.23394e-22)
(5.14622 0.222088 -9.29971e-24)
(5.15713 0.222092 -6.70252e-23)
(5.16825 0.22142 -2.4347e-21)
(5.17951 0.220045 8.31499e-23)
(5.19085 0.217945 -3.37346e-21)
(5.2022 0.215105 0)
(5.21347 0.211517 -7.41491e-23)
(5.22458 0.207181 -1.85886e-22)
(5.23546 0.202105 -1.57942e-21)
(5.24603 0.196305 7.0469e-22)
(5.25621 0.189804 2.16462e-17)
(5.26593 0.182631 -2.15958e-17)
(5.27512 0.174824 -2.03859e-21)
(5.28372 0.166431 1.7988e-22)
(5.29169 0.157503 -4.47496e-21)
(5.29897 0.148098 0)
(5.30553 0.138275 4.40163e-21)
(5.31134 0.128098 -1.12028e-21)
(5.31638 0.117632 -2.84492e-22)
(5.32064 0.106943 -8.289e-21)
(5.32411 0.0960982 9.86118e-21)
(5.32679 0.0851619 -1.15997e-21)
(5.32869 0.0741984 0)
(5.32984 0.0632696 -3.82188e-20)
(5.33025 0.0524347 2.03736e-20)
(5.32995 0.0417498 -3.868e-20)
(5.32897 0.0312672 3.84294e-20)
(5.32736 0.0210356 2.89855e-22)
(5.32515 0.0110994 -2.83111e-21)
(5.32239 0.00149874 -3.64433e-20)
(5.31913 -0.00773049 3.60543e-20)
(5.31541 -0.0165553 -2.75232e-22)
(5.3113 -0.0249493 0)
(5.30681 -0.0329126 -1.58048e-20)
(5.30195 -0.0404002 -6.19508e-23)
(5.29684 -0.0474993 6.19202e-23)
(5.04523 0.160057 -5.41229e-21)
(5.0503 0.164452 0)
(5.05573 0.16873 0)
(5.06145 0.172885 0)
(5.06751 0.176894 0)
(5.07392 0.180723 1.00531e-21)
(5.08068 0.184336 0)
(5.08778 0.187696 0)
(5.0952 0.190767 2.04504e-21)
(5.10293 0.193509 -1.33771e-21)
(5.11096 0.195884 3.78e-23)
(5.11924 0.19785 -2.30021e-23)
(5.12776 0.199366 8.41503e-23)
(5.13649 0.200395 2.39836e-23)
(5.14539 0.200903 -4.90571e-23)
(5.15442 0.200861 -5.08233e-23)
(5.16355 0.200243 2.19525e-21)
(5.17271 0.199028 0)
(5.18188 0.197199 2.96625e-21)
(5.19099 0.194747 9.92558e-23)
(5.2 0.191668 6.14877e-23)
(5.20885 0.187964 -2.231e-21)
(5.2175 0.183644 0)
(5.22589 0.178725 -8.74419e-23)
(5.23397 0.173228 2.64069e-17)
(5.2417 0.167181 -2.63552e-17)
(5.24904 0.160619 -2.1874e-23)
(5.25595 0.15358 1.38721e-21)
(5.26238 0.146107 2.9921e-21)
(5.26831 0.138246 -9.98949e-23)
(5.27372 0.130047 0)
(5.27857 0.12156 -7.50104e-21)
(5.28286 0.112839 0)
(5.28657 0.103937 1.17253e-21)
(5.2897 0.0949059 0)
(5.29224 0.0857994 -1.53557e-20)
(5.2942 0.0766685 7.38338e-21)
(5.29559 0.0675625 2.32329e-20)
(5.29641 0.0585285 4.71255e-22)
(5.29669 0.0496109 1.57775e-20)
(5.29644 0.0408509 -1.61616e-20)
(5.29568 0.0322862 -1.38778e-20)
(5.29445 0.0239508 -2.07759e-21)
(5.29275 0.0158747 1.56293e-20)
(5.29062 0.00808333 -1.55946e-20)
(5.2881 0.00059959 -1.32528e-20)
(5.28519 -0.00656548 2.19409e-22)
(5.28195 -0.0133735 1.43994e-20)
(5.27837 -0.0199141 0)
(5.27455 -0.0260546 -1.21877e-20)
(5.05156 0.145459 8.90843e-21)
(5.05611 0.148791 3.59472e-21)
(5.06093 0.151955 5.38322e-23)
(5.06595 0.154948 -2.9349e-21)
(5.07121 0.157754 0)
(5.07672 0.160352 6.77044e-22)
(5.08249 0.162717 -1.68982e-21)
(5.0885 0.164825 5.31568e-23)
(5.09475 0.166653 0)
(5.10121 0.168177 0)
(5.10789 0.169376 -3.79722e-23)
(5.11476 0.170228 3.84606e-23)
(5.1218 0.170713 6.04428e-22)
(5.12899 0.170816 8.28847e-22)
(5.13632 0.170521 1.37331e-21)
(5.14373 0.169812 1.3366e-21)
(5.15121 0.168679 -1.68112e-21)
(5.15873 0.167112 6.74661e-23)
(5.16624 0.165106 -6.73442e-23)
(5.17371 0.162657 0)
(5.1811 0.159767 -9.38266e-23)
(5.18837 0.156441 9.36578e-23)
(5.19548 0.152686 0)
(5.20241 0.148514 -5.34774e-22)
(5.2091 0.14394 1.61559e-17)
(5.21552 0.138982 -1.61289e-17)
(5.22164 0.133662 0)
(5.22744 0.128005 -1.19196e-21)
(5.23287 0.122037 -2.7109e-21)
(5.23792 0.115787 2.46165e-21)
(5.24256 0.109288 -2.53642e-21)
(5.24678 0.102571 1.66761e-22)
(5.25055 0.0956704 4.84769e-21)
(5.25388 0.0886208 6.07288e-21)
(5.25676 0.0814571 -3.53182e-22)
(5.25917 0.074214 6.96339e-21)
(5.26113 0.066926 -1.20135e-20)
(5.26262 0.0596269 -6.71674e-21)
(5.26367 0.0523495 7.26806e-22)
(5.26429 0.0451254 -7.28106e-22)
(5.26447 0.0379846 1.1225e-20)
(5.26425 0.0309557 1.22973e-20)
(5.26363 0.0240654 -1.41888e-21)
(5.26264 0.0173385 0)
(5.2613 0.0107977 -3.51088e-22)
(5.25963 0.00446408 1.24366e-20)
(5.25765 -0.00164348 1.70119e-22)
(5.2554 -0.00750835 -1.03335e-20)
(5.25287 -0.0131107 1.00626e-20)
(5.25016 -0.0184738 2.08026e-20)
(5.05602 0.130639 -3.57713e-21)
(5.06022 0.133205 -5.90812e-21)
(5.06461 0.135627 0)
(5.06917 0.137905 2.60723e-21)
(5.07392 0.140032 0)
(5.07886 0.141992 1.82995e-21)
(5.08398 0.143767 1.49261e-21)
(5.08927 0.145342 3.09287e-23)
(5.09472 0.146699 3.13466e-22)
(5.10032 0.147822 -6.13589e-24)
(5.10606 0.148695 -4.2022e-22)
(5.11191 0.149301 0)
(5.11786 0.149626 6.88183e-23)
(5.12388 0.149653 -8.54185e-22)
(5.12997 0.149371 0)
(5.13609 0.148766 -1.28606e-21)
(5.14223 0.14783 1.52593e-21)
(5.14835 0.146556 -1.1267e-22)
(5.15444 0.144938 4.95978e-23)
(5.16046 0.142974 1.03636e-21)
(5.1664 0.140664 0)
(5.17222 0.13801 -8.18679e-23)
(5.17791 0.135019 -5.40351e-22)
(5.18343 0.131698 0)
(5.18876 0.128057 1.72798e-17)
(5.19388 0.12411 -1.72549e-17)
(5.19876 0.119874 0)
(5.2034 0.115365 -8.16911e-22)
(5.20776 0.110604 7.31531e-22)
(5.21183 0.105612 -1.98141e-21)
(5.2156 0.100413 3.50777e-22)
(5.21906 0.0950304 0)
(5.2222 0.0894909 -4.57105e-21)
(5.225 0.0838201 0)
(5.22746 0.0780445 0)
(5.22959 0.0721907 2.77541e-22)
(5.23138 0.0662854 4.3144e-21)
(5.23282 0.0603545 -3.85849e-21)
(5.23393 0.0544235 -4.16868e-21)
(5.23471 0.0485171 -8.37709e-21)
(5.23517 0.0426587 -9.90268e-21)
(5.23532 0.0368707 -8.11314e-21)
(5.23516 0.0311741 -1.03944e-20)
(5.23471 0.0255881 5.6344e-22)
(5.23398 0.0201309 8.00788e-21)
(5.23298 0.0148182 0)
(5.23174 0.00966532 -8.13245e-21)
(5.23026 0.0046815 9.26062e-21)
(5.22855 -0.000106382 -1.69452e-20)
(5.22669 -0.00475957 -8.97481e-21)
(5.05762 0.115557 1.71273e-23)
(5.06129 0.117434 2.33843e-21)
(5.0651 0.119169 -5.30913e-23)
(5.06902 0.120766 9.81787e-23)
(5.07307 0.122217 -8.18264e-23)
(5.07724 0.12351 -8.83337e-22)
(5.08153 0.124635 2.82104e-23)
(5.08593 0.125578 0)
(5.09043 0.126329 -2.83919e-22)
(5.09503 0.126878 0)
(5.09971 0.127214 3.86228e-22)
(5.10447 0.127328 -3.67641e-22)
(5.10928 0.127212 -5.39972e-22)
(5.11414 0.126859 6.53467e-22)
(5.11904 0.126263 0)
(5.12396 0.12542 0)
(5.12888 0.124326 7.61556e-23)
(5.13378 0.122979 -1.6188e-22)
(5.13866 0.121379 -5.95739e-22)
(5.14348 0.119527 -7.80213e-22)
(5.14824 0.117424 -1.61574e-22)
(5.15292 0.115076 5.6898e-23)
(5.15749 0.112486 1.25042e-22)
(5.16194 0.109663 -5.03753e-23)
(5.16625 0.106615 1.1403e-17)
(5.17041 0.103352 -1.13898e-17)
(5.1744 0.099885 -2.95528e-22)
(5.1782 0.0962267 8.29157e-22)
(5.18181 0.0923908 -1.50085e-21)
(5.1852 0.088392 1.14638e-21)
(5.18837 0.0842458 1.65027e-21)
(5.19131 0.0799686 1.88309e-22)
(5.19401 0.0755772 0)
(5.19646 0.071089 0)
(5.19866 0.0665214 0)
(5.2006 0.0618921 -3.06721e-21)
(5.20228 0.0572189 0)
(5.20371 0.0525193 6.26669e-22)
(5.20488 0.0478104 3.8002e-21)
(5.2058 0.0431091 4.44032e-21)
(5.20647 0.0384316 3.21075e-21)
(5.20689 0.0337937 7.65447e-21)
(5.20708 0.0292103 0)
(5.20704 0.0246956 0)
(5.20677 0.020263 -1.39589e-20)
(5.2063 0.0159247 -6.15661e-21)
(5.20562 0.0116927 6.98713e-21)
(5.20475 0.0075763 2.10739e-22)
(5.20369 0.00358957 7.26569e-21)
(5.20251 -0.000277439 -5.14029e-23)
(5.0573 0.101006 0)
(5.06052 0.102394 0)
(5.06384 0.103662 0)
(5.06725 0.104815 -3.0316e-23)
(5.07074 0.105849 3.03363e-23)
(5.07432 0.106757 8.08015e-22)
(5.07799 0.107533 0)
(5.08172 0.108168 7.10792e-24)
(5.08553 0.108656 7.78322e-24)
(5.08939 0.10899 0)
(5.09331 0.109165 0)
(5.09727 0.109175 3.33125e-22)
(5.10125 0.109014 4.95785e-22)
(5.10526 0.108678 -4.08903e-23)
(5.10928 0.108163 1.46107e-23)
(5.1133 0.107464 -3.9607e-23)
(5.11731 0.10658 -4.79587e-22)
(5.12128 0.105508 0)
(5.12522 0.104248 5.43324e-22)
(5.12911 0.1028 6.52971e-22)
(5.13294 0.101165 0)
(5.13669 0.0993463 0)
(5.14036 0.0973463 4.30671e-22)
(5.14392 0.09517 0)
(5.14737 0.0928228 -2.41733e-18)
(5.1507 0.0903112 2.41508e-18)
(5.1539 0.0876428 4.91759e-22)
(5.15696 0.0848258 -4.64943e-22)
(5.15986 0.0818695 1.13453e-21)
(5.1626 0.0787839 -2.27751e-21)
(5.16518 0.0755796 0)
(5.16759 0.072268 0)
(5.16981 0.0688607 0)
(5.17186 0.0653699 -1.54496e-22)
(5.17371 0.0618081 -2.11824e-21)
(5.17538 0.0581878 2.79351e-21)
(5.17686 0.0545217 2.67176e-21)
(5.17815 0.0508225 2.5421e-21)
(5.17924 0.0471029 3.30386e-22)
(5.18015 0.0433751 5.00547e-21)
(5.18088 0.0396513 -2.59072e-21)
(5.18142 0.0359431 -2.78441e-21)
(5.18178 0.0322617 4.5789e-21)
(5.18196 0.0286179 4.9714e-26)
(5.18198 0.0250219 6.16866e-21)
(5.18183 0.021483 5.96813e-21)
(5.18153 0.0180106 -1.65901e-22)
(5.18107 0.0146111 0)
(5.18047 0.0112991 0)
(5.17977 0.00805169 0)
(5.0551 0.0865922 -1.08514e-21)
(5.05784 0.0875639 1.7341e-23)
(5.06064 0.0884322 -2.53883e-23)
(5.06349 0.0892015 2.5407e-23)
(5.0664 0.0898694 -5.1406e-22)
(5.06937 0.0904311 3.69479e-22)
(5.07238 0.0908816 1.1137e-22)
(5.07544 0.0912162 3.70748e-23)
(5.07853 0.0914307 2.45176e-23)
(5.08166 0.0915208 0)
(5.08482 0.0914828 -2.97119e-23)
(5.08799 0.0913134 2.97215e-23)
(5.09118 0.0910096 -4.75364e-23)
(5.09438 0.0905691 -4.86667e-22)
(5.09757 0.0899899 0)
(5.10076 0.0892709 -5.73059e-22)
(5.10393 0.0884116 7.10405e-22)
(5.10707 0.0874125 -1.02729e-22)
(5.11019 0.086274 1.02662e-22)
(5.11326 0.0849975 -5.85941e-22)
(5.11628 0.0835849 -4.87187e-24)
(5.11925 0.0820386 6.6094e-23)
(5.12215 0.080362 -2.68971e-22)
(5.12498 0.0785588 -1.22701e-22)
(5.12773 0.0766334 -1.97141e-18)
(5.13039 0.0745909 1.9697e-18)
(5.13295 0.0724369 -3.46274e-22)
(5.13541 0.0701775 7.77961e-23)
(5.13776 0.0678192 -4.39487e-22)
(5.14 0.0653691 1.01305e-21)
(5.14211 0.0628346 -1.02853e-22)
(5.14411 0.0602234 0)
(5.14597 0.0575435 2.23479e-22)
(5.1477 0.0548031 -4.5171e-22)
(5.1493 0.0520107 3.98917e-21)
(5.15076 0.0491748 0)
(5.15208 0.0463038 -2.13789e-21)
(5.15326 0.0434064 0)
(5.1543 0.040491 2.46212e-22)
(5.1552 0.0375659 -4.27133e-21)
(5.15596 0.0346402 2.50036e-22)
(5.15658 0.031722 1.98216e-21)
(5.15707 0.0288186 -2.62115e-21)
(5.15742 0.0259369 0)
(5.15765 0.0230842 3.47338e-21)
(5.15775 0.0202674 -3.47315e-21)
(5.15773 0.0174927 -1.2545e-22)
(5.15759 0.0147663 1.25308e-22)
(5.15733 0.0120943 -6.1994e-23)
(5.15699 0.0094786 -3.60566e-21)
(5.05126 0.0736755 2.11036e-22)
(5.05358 0.074393 6.54925e-22)
(5.05595 0.0750268 0)
(5.05836 0.0755814 0)
(5.0608 0.0760559 4.66048e-22)
(5.06327 0.0764475 -3.21341e-22)
(5.06578 0.0767534 -1.14615e-22)
(5.06832 0.0769709 -3.36139e-23)
(5.07087 0.0770975 -2.52579e-23)
(5.07345 0.077131 7.72376e-24)
(5.07604 0.0770693 7.75225e-24)
(5.07864 0.0769105 -2.73757e-22)
(5.08124 0.0766532 -4.66529e-23)
(5.08384 0.0762961 4.02574e-23)
(5.08644 0.0758382 0)
(5.08902 0.075279 5.83149e-22)
(5.09158 0.074618 -6.0444e-22)
(5.09412 0.073855 1.95357e-22)
(5.09663 0.0729903 -3.07661e-22)
(5.0991 0.0720248 -2.40615e-22)
(5.10153 0.0709596 -1.75939e-22)
(5.10391 0.0697965 0)
(5.10624 0.0685375 2.44315e-22)
(5.10852 0.0671851 1.29615e-22)
(5.11072 0.0657421 3.29055e-18)
(5.11286 0.0642119 -3.28831e-18)
(5.11493 0.062598 2.73324e-22)
(5.11692 0.0609043 3.13762e-22)
(5.11882 0.0591352 -7.45918e-23)
(5.12064 0.0572952 -2.00475e-22)
(5.12237 0.0553891 1.58934e-22)
(5.12401 0.053422 -1.58807e-22)
(5.12555 0.0513993 0)
(5.127 0.0493264 4.4306e-22)
(5.12834 0.0472089 -1.36795e-21)
(5.12958 0.0450525 0)
(5.13072 0.0428632 1.80898e-22)
(5.13176 0.0406466 -1.80732e-22)
(5.13269 0.0384087 0)
(5.13353 0.0361552 1.6543e-21)
(5.13426 0.0338922 0)
(5.13489 0.031626 0)
(5.13542 0.0293622 -1.68772e-21)
(5.13584 0.0271058 -1.2067e-21)
(5.13617 0.0248615 -3.58301e-21)
(5.1364 0.0226343 3.39059e-21)
(5.13654 0.0204289 0)
(5.13659 0.0182494 0)
(5.13654 0.0161026 2.85608e-21)
(5.13644 0.0139821 4.91708e-22)
(5.04717 0.0604708 6.86351e-22)
(5.04909 0.0609539 -5.93773e-22)
(5.05103 0.0613709 -1.95219e-22)
(5.053 0.061725 -1.83647e-23)
(5.05499 0.0620155 1.83778e-23)
(5.05699 0.0622406 0)
(5.05902 0.0623988 -3.97865e-24)
(5.06106 0.0624884 -3.10484e-24)
(5.0631 0.0625078 7.08953e-24)
(5.06516 0.0624558 0)
(5.06721 0.0623311 0)
(5.06927 0.0621327 1.96401e-22)
(5.07133 0.0618599 -3.09865e-22)
(5.07337 0.0615119 1.27447e-23)
(5.07541 0.0610885 1.12387e-22)
(5.07744 0.0605896 -9.01691e-23)
(5.07944 0.0600152 8.83752e-23)
(5.08143 0.0593662 -2.4842e-22)
(5.08339 0.0586435 3.83457e-22)
(5.08532 0.0578481 3.64981e-22)
(5.08721 0.056981 -7.54452e-23)
(5.08908 0.0560438 -2.45905e-24)
(5.0909 0.0550381 1.84583e-23)
(5.09267 0.0539658 -7.11691e-24)
(5.09441 0.0528291 2.66207e-18)
(5.09609 0.0516304 -2.66075e-18)
(5.09771 0.0503723 -6.66089e-23)
(5.09929 0.0490576 5.25296e-23)
(5.1008 0.0476893 8.77365e-23)
(5.10225 0.0462705 5.05922e-22)
(5.10364 0.0448048 0)
(5.10496 0.0432955 9.50132e-23)
(5.10621 0.0417463 1.1918e-22)
(5.10739 0.040161 -6.83875e-22)
(5.1085 0.0385435 1.25105e-22)
(5.10954 0.0368976 -4.71174e-22)
(5.1105 0.0352275 0)
(5.11139 0.0335363 -2.69174e-22)
(5.11221 0.0318316 -7.22096e-22)
(5.11295 0.0299889 0)
(5.11362 0.028296 0)
(5.11422 0.0266272 -1.02653e-21)
(5.11475 0.0249077 0)
(5.11519 0.0231796 1.27287e-21)
(5.11556 0.0214552 0)
(5.11586 0.0197398 -1.43389e-22)
(5.11609 0.018037 1.43235e-22)
(5.11625 0.01635 -1.05835e-21)
(5.11634 0.014681 -2.51966e-21)
(5.11639 0.013035 2.51111e-21)
(5.04142 0.0503401 -1.88979e-22)
(5.04303 0.0507305 0)
(5.04466 0.0510686 1.58909e-22)
(5.0463 0.0513576 4.02539e-24)
(5.04795 0.0515973 1.41314e-23)
(5.04961 0.0517868 4.49628e-23)
(5.05129 0.0519252 0)
(5.05297 0.0520116 4.4341e-24)
(5.05465 0.052045 1.72067e-23)
(5.05634 0.0520247 0)
(5.05803 0.0519502 -8.02822e-23)
(5.05971 0.0518209 9.4963e-23)
(5.06139 0.0516365 -8.03624e-23)
(5.06306 0.0513968 1.12221e-22)
(5.06472 0.0511017 -6.85799e-23)
(5.06637 0.0507512 -6.18578e-23)
(5.068 0.0503458 2.8689e-23)
(5.06961 0.0498853 0)
(5.0712 0.0493699 -1.80388e-23)
(5.07277 0.0488004 -5.03746e-23)
(5.07431 0.0481776 1.26043e-22)
(5.07582 0.0475025 -8.28847e-23)
(5.0773 0.0467762 8.31724e-23)
(5.07874 0.046 6.66883e-24)
(5.08015 0.0451755 -2.14641e-18)
(5.08152 0.0443041 2.14555e-18)
(5.08285 0.0433876 -7.39263e-23)
(5.08414 0.0424279 6.88229e-23)
(5.08538 0.0414269 -2.56982e-22)
(5.08658 0.0403867 4.49044e-23)
(5.08773 0.0393095 -8.55433e-23)
(5.08883 0.0381975 -1.09186e-22)
(5.08988 0.0370533 1.80816e-22)
(5.09087 0.0358792 -3.46831e-23)
(5.09182 0.0346779 1.85149e-22)
(5.09271 0.0334516 8.1915e-23)
(5.09354 0.0322044 3.53075e-22)
(5.09433 0.0309337 0)
(5.09506 0.0296637 6.97396e-22)
(5.09573 0.0282992 5.73804e-22)
(5.09634 0.026916 0)
(5.0969 0.0256025 1.14416e-21)
(5.09741 0.0243254 -2.10718e-22)
(5.09787 0.0230537 0)
(5.09826 0.0217371 7.79515e-22)
(5.09861 0.0204118 0)
(5.09889 0.0190883 -1.08892e-22)
(5.09912 0.0177702 1.07116e-21)
(5.09929 0.0164606 0)
(5.09943 0.0151589 -7.93773e-22)
(5.03794 0.0379 1.71302e-22)
(5.03922 0.0381669 0)
(5.04051 0.038392 0)
(5.04181 0.0385781 0)
(5.04311 0.0387275 8.22764e-24)
(5.04442 0.038842 -4.89923e-23)
(5.04573 0.0389228 0)
(5.04704 0.0389697 0)
(5.04835 0.0389818 -1.96207e-23)
(5.04966 0.0389573 3.03372e-23)
(5.05096 0.0388943 8.73637e-23)
(5.05225 0.0387919 -9.18339e-23)
(5.05354 0.0386501 1.05087e-22)
(5.05482 0.0384688 0)
(5.05609 0.0382482 0)
(5.05734 0.0379883 7.87775e-24)
(5.05858 0.0376896 7.01599e-23)
(5.05981 0.0373528 -5.68724e-23)
(5.06101 0.0369784 -1.31039e-23)
(5.0622 0.036567 -3.33349e-23)
(5.06337 0.036119 8.70124e-23)
(5.06452 0.0356354 3.80541e-23)
(5.06564 0.035117 -4.93059e-23)
(5.06673 0.0345646 2.60503e-23)
(5.0678 0.0339792 -1.74742e-18)
(5.06885 0.0333621 1.7469e-18)
(5.06986 0.0327141 1.69396e-23)
(5.07084 0.0320376 -3.70344e-23)
(5.07179 0.0313291 -1.11313e-22)
(5.0727 0.0305903 -1.90836e-22)
(5.07358 0.0298239 -1.86739e-24)
(5.07443 0.0290324 -5.3961e-23)
(5.07524 0.0282171 1.19441e-22)
(5.07601 0.0273793 -3.00907e-22)
(5.07675 0.0265202 0)
(5.07744 0.0256411 3.14584e-22)
(5.07811 0.0247429 -3.20771e-22)
(5.07873 0.0238273 1.45428e-22)
(5.07931 0.0228931 2.37505e-24)
(5.07986 0.0219463 -7.5943e-22)
(5.08036 0.0209872 0)
(5.08082 0.0200612 -1.53335e-22)
(5.08124 0.0191448 1.53201e-22)
(5.08163 0.0182148 1.56195e-22)
(5.08198 0.0173093 -1.15556e-21)
(5.08229 0.0163823 0)
(5.08256 0.0155037 0)
(5.08278 0.0145716 0)
(5.08297 0.0136295 0)
(5.08313 0.0126915 7.21658e-22)
(5.03222 0.031822 -4.15057e-23)
(5.03338 0.0320842 0)
(5.03449 0.0323161 0)
(5.03561 0.0325195 0)
(5.03674 0.0326943 0)
(5.03786 0.0328405 0)
(5.03899 0.0329578 0)
(5.04011 0.0330461 -6.42412e-24)
(5.04123 0.0331049 1.03893e-23)
(5.04235 0.0331341 -4.17949e-23)
(5.04346 0.0331333 -5.53209e-23)
(5.04457 0.0331011 4.41715e-23)
(5.04566 0.0330367 -4.41865e-23)
(5.04675 0.0329398 3.07996e-23)
(5.04783 0.032811 -6.5906e-23)
(5.0489 0.0326508 7.74934e-23)
(5.04996 0.0324594 -2.00588e-23)
(5.051 0.032237 2.97274e-23)
(5.05203 0.0319842 -5.60373e-23)
(5.05304 0.0317015 3.02227e-23)
(5.05404 0.0313895 -4.33261e-23)
(5.05502 0.0310486 2.71009e-23)
(5.05598 0.0306796 -3.17638e-23)
(5.05691 0.0302832 7.95348e-24)
(5.05783 0.0298601 -1.0829e-18)
(5.05873 0.0294112 1.08264e-18)
(5.0596 0.0289373 6.75607e-25)
(5.06044 0.0284392 -2.30795e-23)
(5.06127 0.0279181 2.83501e-23)
(5.06206 0.0273746 4.9574e-23)
(5.06283 0.0268114 0)
(5.06357 0.0262221 1.05447e-22)
(5.06428 0.0256109 -6.43015e-23)
(5.06496 0.0249801 0)
(5.06561 0.0243309 -4.62726e-23)
(5.06623 0.0236641 -1.06723e-22)
(5.06682 0.0229805 1.06656e-22)
(5.06738 0.0222811 9.8273e-23)
(5.0679 0.0215659 0)
(5.06839 0.0208361 2.49781e-22)
(5.06885 0.0200908 1.02966e-22)
(5.06927 0.0193415 -1.04294e-22)
(5.06967 0.0186138 0)
(5.07003 0.0178904 0)
(5.07036 0.0171665 2.642e-22)
(5.07067 0.016445 0)
(5.07094 0.0157237 -1.09313e-22)
(5.07119 0.0150172 0)
(5.0714 0.0142875 0)
(5.07159 0.0135395 -2.22192e-22)
(5.0322 0.0180858 3.75798e-23)
(5.03302 0.0183337 2.89715e-24)
(5.03384 0.0185694 -2.89947e-24)
(5.03466 0.0187903 1.201e-25)
(5.03549 0.0189938 2.95355e-24)
(5.0363 0.0191774 8.95033e-24)
(5.03711 0.0193394 -2.99072e-23)
(5.03792 0.0194797 1.50449e-26)
(5.03872 0.0195988 1.42918e-23)
(5.03951 0.0196981 1.29383e-23)
(5.0403 0.0197783 1.63956e-23)
(5.04109 0.0198388 0)
(5.04186 0.0198788 5.15032e-23)
(5.04263 0.0198984 -1.08336e-22)
(5.04338 0.0198981 5.68326e-23)
(5.04413 0.0198786 0)
(5.04486 0.01984 -1.81065e-23)
(5.04559 0.0197826 9.48867e-23)
(5.0463 0.0197066 -3.88387e-23)
(5.047 0.0196125 0)
(5.04768 0.0195005 1.22179e-23)
(5.04836 0.0193709 0)
(5.04901 0.0192241 0)
(5.04965 0.0190603 -7.20911e-24)
(5.05028 0.0188801 -8.9041e-19)
(5.05089 0.0186838 8.90292e-19)
(5.05148 0.0184719 3.8102e-23)
(5.05206 0.0182448 -2.98646e-23)
(5.05262 0.018003 1.77274e-23)
(5.05316 0.017747 0)
(5.05368 0.0174773 6.74722e-23)
(5.05418 0.0171947 1.78198e-24)
(5.05466 0.0168997 -1.8011e-22)
(5.05512 0.0165928 7.08824e-23)
(5.05556 0.0162748 4.19835e-23)
(5.05598 0.0159463 -1.51002e-22)
(5.05638 0.0156079 1.50919e-22)
(5.05676 0.0152603 -8.91843e-23)
(5.05712 0.0149041 0)
(5.05745 0.0145403 0)
(5.05776 0.0141694 -9.34626e-23)
(5.05805 0.0137922 2.59646e-22)
(5.05832 0.0134088 1.87074e-24)
(5.05857 0.0130201 1.72401e-24)
(5.0588 0.0126264 -1.68167e-22)
(5.05901 0.0122293 8.55216e-23)
(5.0592 0.0118269 1.38155e-23)
(5.05937 0.0114277 4.33008e-23)
(5.05952 0.011011 -4.32583e-23)
(5.05965 0.0106317 2.01788e-22)
(5.32837 -0.0987493 0)
(5.31773 -0.103366 0)
(5.30672 -0.107681 0)
(5.29526 -0.11136 0)
(5.28369 -0.114131 0)
(5.27232 -0.116052 0)
(5.26128 -0.117232 0)
(5.25063 -0.117698 0)
(5.24043 -0.117479 0)
(5.23072 -0.116643 0)
(5.22156 -0.115268 0)
(5.21295 -0.113431 0)
(5.20491 -0.111201 0)
(5.19742 -0.108646 0)
(5.19048 -0.105827 0)
(5.18408 -0.102801 0)
(5.17819 -0.0996178 0)
(5.17281 -0.0963235 0)
(5.16789 -0.0929575 0)
(5.16342 -0.0895537 0)
(5.15936 -0.0861421 0)
(5.1557 -0.0827493 0)
(5.15239 -0.079399 0)
(5.14942 -0.0761132 0)
(5.14675 -0.0729098 0)
(5.14438 -0.0698005 0)
(5.14226 -0.0667889 0)
(5.14039 -0.0638779 0)
(5.13874 -0.0610722 0)
(5.13728 -0.0583756 0)
(5.136 -0.0557909 0)
(5.13488 -0.0533196 0)
(5.13391 -0.0509626 0)
(5.13307 -0.0487194 0)
(5.13235 -0.0465883 0)
(5.13174 -0.0445653 0)
(5.13123 -0.0426368 0)
(5.13079 -0.0407944 0)
(5.13042 -0.0390481 0)
(5.1301 -0.0374061 0)
(5.12985 -0.0358668 0)
(5.12966 -0.0344208 0)
(5.12952 -0.0330577 0)
(5.12942 -0.0317703 0)
(5.12935 -0.0305555 0)
(5.12931 -0.0294112 0)
(5.1293 -0.0283356 0)
(5.12932 -0.0273262 0)
(5.12935 -0.0263799 0)
(5.12941 -0.0254937 0)
(5.12948 -0.0246645 0)
(5.12956 -0.0238899 0)
(5.12966 -0.0231673 0)
(5.12976 -0.0224943 0)
(5.12988 -0.0218689 0)
(5.13001 -0.0212893 0)
(5.13014 -0.020754 0)
(5.13028 -0.0202615 0)
(5.13043 -0.0198104 0)
(5.13058 -0.0193994 0)
(5.13074 -0.0190275 0)
(5.13091 -0.0186944 0)
(5.13109 -0.0183996 0)
(5.13127 -0.0181435 0)
(5.13146 -0.0179261 0)
(5.13165 -0.0177496 0)
(5.13188 -0.0176116 0)
(5.13204 -0.0175267 0)
(5.13238 -0.0174606 0)
(5.31158 -0.0625411 0)
(5.30094 -0.0693066 0)
(5.29038 -0.0753823 0)
(5.28013 -0.0806586 0)
(5.27008 -0.0850611 0)
(5.26019 -0.0886205 0)
(5.25056 -0.0913954 0)
(5.24123 -0.0934323 0)
(5.23226 -0.0947962 0)
(5.22367 -0.0955131 0)
(5.21549 -0.0956437 0)
(5.20773 -0.0952542 0)