/*--------------------------------*- C++ -*----------------------------------*\
| =========                 |                                                 |
| \\      /  F ield         | OpenFOAM: The Open Source CFD Toolbox           |
|  \\    /   O peration     | Version:  2412                                  |
|   \\  /    A nd           | Website:  www.openfoam.com                      |
|    \\/     M anipulation  |                                                 |
\*---------------------------------------------------------------------------*/
FoamFile
{
    version     2.0;
    format      ascii;
    arch        "LSB;label=32;scalar=64";
    class       volScalarField;
    location    "1000";
    object      yPlus;
}
// * * * * * * * * * * * * * * * * * * * * * * * * * * * * * * * * * * * * * //

dimensions      [0 0 0 0 0 0 0];

internalField   uniform 0;

boundaryField
{
    sides
    {
        type            empty;
    }
    inlet
    {
        type            calculated;
        value           uniform 0;
    }
    topBot
    {
        type            calculated;
        value           uniform 0;
    }
    outlet
    {
        type            calculated;
        value           uniform 0;
    }
    wall
    {
        type            calculated;
        value           nonuniform List<scalar> 
200
(
62.3555
60.8623
59.284
57.6219
55.8777
54.0561
52.1592
50.1891
48.1481
46.0379
43.8602
41.6164
39.3079
36.9357
34.5008
32.0034
29.4421
26.8143
24.1064
21.3182
18.5018
15.6169
12.4382
9.7572
7.76312
7.7722
9.77655
12.4624
15.6467
18.5309
21.3454
24.1324
26.8401
29.4678
32.0287
34.5254
36.9596
39.331
41.6388
43.8819
46.059
48.1685
50.2088
52.1781
54.0744
55.8952
57.6387
59.3001
60.8777
62.3703
11.1934
11.7673
12.3417
12.8978
13.4175
13.8844
14.2838
14.6034
14.8335
14.9655
14.9924
14.9107
14.7193
14.4167
14.0018
13.4802
12.8524
12.1225
11.2938
10.3715
9.37022
8.29467
7.10525
5.92764
4.99872
4.92054
5.77043
6.92642
8.13367
9.21383
10.2177
11.1441
11.9777
12.7124
13.3447
13.8708
14.2904
14.598
14.7946
14.8817
14.8607
14.7349
14.5113
14.1986
13.8064
13.347
12.835
12.2868
11.7203
11.1545
63.7774
65.0995
66.3373
67.4931
68.5652
69.5446
70.426
71.2048
71.8763
72.4329
72.8688
73.1768
73.3502
73.3894
73.2884
73.0391
72.6307
72.0473
71.2739
70.2902
69.066
67.5613
65.7324
63.5307
60.8844
57.7401
53.9969
49.5595
44.2905
38.1595
31.4829
23.9379
16.307
7.87151
9.11346
11.8824
12.9959
13.2736
11.6555
10.1303
9.32164
9.0789
8.958
8.86285
8.90062
9.05428
9.31412
9.67789
10.1272
10.6398
63.7633
65.086
66.3244
67.4806
68.5533
69.5332
70.4151
71.1945
71.8665
72.4236
72.86
73.1685
73.3423
73.3819
73.2812
73.0322
72.624
72.0407
71.2674
70.2836
69.0591
67.554
65.7246
63.5221
60.8748
57.7294
53.985
49.5468
44.2764
38.1447
31.4646
23.9135
16.2781
7.84817
9.11655
11.8702
12.9697
13.2437
11.6263
10.1132
9.31516
9.07867
8.95813
8.86326
8.89976
9.04988
9.30468
9.66206
10.1042
10.6088
)
;
    }
}


// ************************************************************************* //
