/*--------------------------------*- C++ -*----------------------------------*\
| =========                 |                                                 |
| \\      /  F ield         | OpenFOAM: The Open Source CFD Toolbox           |
|  \\    /   O peration     | Version:  2412                                  |
|   \\  /    A nd           | Website:  www.openfoam.com                      |
|    \\/     M anipulation  |                                                 |
\*---------------------------------------------------------------------------*/
FoamFile
{
    version     2.0;
    format      ascii;
    arch        "LSB;label=32;scalar=64";
    class       volScalarField;
    location    "1500";
    object      nut;
}
// * * * * * * * * * * * * * * * * * * * * * * * * * * * * * * * * * * * * * //

dimensions      [0 2 -1 0 0 0 0];

internalField   nonuniform List<scalar> 
8896
(
1.04461e-09
1.04565e-09
1.04669e-09
1.04773e-09
1.04877e-09
1.04981e-09
1.05085e-09
1.05189e-09
1.05291e-09
1.05394e-09
1.04463e-09
1.04571e-09
1.04679e-09
1.04787e-09
1.04895e-09
1.05003e-09
1.05112e-09
1.05219e-09
1.05331e-09
1.05427e-09
1.04463e-09
1.04571e-09
1.0468e-09
1.04788e-09
1.04897e-09
1.05005e-09
1.05114e-09
1.05223e-09
1.05332e-09
1.0544e-09
1.04462e-09
1.04567e-09
1.04673e-09
1.04778e-09
1.04884e-09
1.0499e-09
1.05096e-09
1.05203e-09
1.05309e-09
1.05416e-09
1.0446e-09
1.0456e-09
1.0466e-09
1.04761e-09
1.04861e-09
1.04962e-09
1.05063e-09
1.05165e-09
1.05266e-09
1.0537e-09
1.04456e-09
1.0455e-09
1.04643e-09
1.04737e-09
1.04831e-09
1.04926e-09
1.0502e-09
1.05115e-09
1.05209e-09
1.05306e-09
1.04452e-09
1.04538e-09
1.04624e-09
1.0471e-09
1.04796e-09
1.04883e-09
1.04969e-09
1.05057e-09
1.05143e-09
1.05232e-09
1.04448e-09
1.04526e-09
1.04603e-09
1.04681e-09
1.04759e-09
1.04837e-09
1.04915e-09
1.04994e-09
1.05072e-09
1.05152e-09
1.04444e-09
1.04513e-09
1.04582e-09
1.04651e-09
1.0472e-09
1.04789e-09
1.04859e-09
1.04929e-09
1.04998e-09
1.05069e-09
1.0444e-09
1.045e-09
1.0456e-09
1.0462e-09
1.04681e-09
1.04741e-09
1.04802e-09
1.04863e-09
1.04923e-09
1.04986e-09
1.04435e-09
1.04487e-09
1.04538e-09
1.0459e-09
1.04642e-09
1.04694e-09
1.04746e-09
1.04798e-09
1.0485e-09
1.04903e-09
1.04431e-09
1.04474e-09
1.04517e-09
1.0456e-09
1.04603e-09
1.04647e-09
1.0469e-09
1.04734e-09
1.04777e-09
1.04821e-09
1.04427e-09
1.04461e-09
1.04496e-09
1.0453e-09
1.04565e-09
1.046e-09
1.04635e-09
1.0467e-09
1.04704e-09
1.0474e-09
1.04422e-09
1.04448e-09
1.04474e-09
1.045e-09
1.04526e-09
1.04553e-09
1.04579e-09
1.04605e-09
1.04631e-09
1.04658e-09
1.04418e-09
1.04434e-09
1.04451e-09
1.04468e-09
1.04485e-09
1.04502e-09
1.04518e-09
1.04535e-09
1.04552e-09
1.0457e-09
1.04412e-09
1.04418e-09
1.04424e-09
1.0443e-09
1.04436e-09
1.0444e-09
1.04444e-09
1.04446e-09
1.04448e-09
1.04449e-09
1.0546e-09
1.05481e-09
1.055e-09
1.05518e-09
1.05536e-09
1.05555e-09
1.05573e-09
1.05591e-09
1.05608e-09
1.05626e-09
1.05644e-09
1.05662e-09
1.0568e-09
1.05698e-09
1.05717e-09
1.05737e-09
1.05757e-09
1.05779e-09
1.05803e-09
1.05829e-09
1.05857e-09
1.05889e-09
1.05926e-09
1.05966e-09
1.06026e-09
1.06093e-09
1.06147e-09
1.06179e-09
1.062e-09
1.06218e-09
1.06235e-09
1.06252e-09
1.06269e-09
1.06286e-09
1.06304e-09
1.06322e-09
1.06339e-09
1.06359e-09
1.06376e-09
1.06401e-09
1.0644e-09
1.06488e-09
1.06546e-09
1.06604e-09
1.055e-09
1.0553e-09
1.05561e-09
1.05587e-09
1.05612e-09
1.05637e-09
1.05661e-09
1.05685e-09
1.0571e-09
1.05734e-09
1.05758e-09
1.05782e-09
1.05806e-09
1.05829e-09
1.05852e-09
1.05874e-09
1.05896e-09
1.05918e-09
1.05939e-09
1.05961e-09
1.05982e-09
1.06003e-09
1.06024e-09
1.06047e-09
1.06065e-09
1.06095e-09
1.06126e-09
1.06151e-09
1.06175e-09
1.06198e-09
1.06221e-09
1.06243e-09
1.06265e-09
1.06288e-09
1.0631e-09
1.06332e-09
1.06354e-09
1.06375e-09
1.06397e-09
1.06428e-09
1.06468e-09
1.06517e-09
1.06569e-09
1.06632e-09
1.05511e-09
1.05537e-09
1.05562e-09
1.05587e-09
1.05611e-09
1.05635e-09
1.05659e-09
1.05683e-09
1.05707e-09
1.05731e-09
1.05755e-09
1.05779e-09
1.05803e-09
1.05827e-09
1.0585e-09
1.05874e-09
1.05898e-09
1.05923e-09
1.05947e-09
1.05971e-09
1.05994e-09
1.0602e-09
1.06048e-09
1.0608e-09
1.06119e-09
1.06169e-09
1.06216e-09
1.06261e-09
1.06293e-09
1.06319e-09
1.06343e-09
1.06366e-09
1.06389e-09
1.06412e-09
1.06435e-09
1.06458e-09
1.06481e-09
1.06504e-09
1.06527e-09
1.0655e-09
1.06574e-09
1.06592e-09
1.06624e-09
1.06654e-09
1.05484e-09
1.05509e-09
1.05532e-09
1.05556e-09
1.0558e-09
1.05604e-09
1.05628e-09
1.05651e-09
1.05675e-09
1.05699e-09
1.05723e-09
1.05747e-09
1.05771e-09
1.05794e-09
1.05818e-09
1.05842e-09
1.05866e-09
1.0589e-09
1.05913e-09
1.05937e-09
1.05961e-09
1.05985e-09
1.06008e-09
1.06032e-09
1.06056e-09
1.0608e-09
1.0611e-09
1.06138e-09
1.06163e-09
1.06188e-09
1.06213e-09
1.06237e-09
1.06262e-09
1.06287e-09
1.06311e-09
1.06336e-09
1.06361e-09
1.06386e-09
1.06411e-09
1.06436e-09
1.0646e-09
1.06486e-09
1.06514e-09
1.06552e-09
1.05435e-09
1.05459e-09
1.05481e-09
1.05504e-09
1.05526e-09
1.05549e-09
1.05571e-09
1.05593e-09
1.05616e-09
1.05638e-09
1.05661e-09
1.05683e-09
1.05705e-09
1.05728e-09
1.0575e-09
1.05773e-09
1.05795e-09
1.05818e-09
1.05841e-09
1.05863e-09
1.05886e-09
1.05909e-09
1.05932e-09
1.05955e-09
1.05978e-09
1.06001e-09
1.06029e-09
1.0606e-09
1.06095e-09
1.06123e-09
1.06148e-09
1.06172e-09
1.06195e-09
1.06218e-09
1.06242e-09
1.06265e-09
1.06289e-09
1.06312e-09
1.06336e-09
1.0636e-09
1.06384e-09
1.06408e-09
1.06432e-09
1.06457e-09
1.05367e-09
1.05388e-09
1.05409e-09
1.0543e-09
1.05451e-09
1.05472e-09
1.05493e-09
1.05514e-09
1.05535e-09
1.05556e-09
1.05577e-09
1.05598e-09
1.05619e-09
1.0564e-09
1.05661e-09
1.05682e-09
1.05704e-09
1.05725e-09
1.05746e-09
1.05767e-09
1.05789e-09
1.0581e-09
1.05832e-09
1.05853e-09
1.05875e-09
1.05896e-09
1.05918e-09
1.05939e-09
1.05961e-09
1.05983e-09
1.06005e-09
1.06027e-09
1.06049e-09
1.06072e-09
1.06094e-09
1.06116e-09
1.06139e-09
1.06161e-09
1.06184e-09
1.06206e-09
1.06229e-09
1.06252e-09
1.06275e-09
1.06299e-09
1.05288e-09
1.05308e-09
1.05327e-09
1.05346e-09
1.05365e-09
1.05384e-09
1.05403e-09
1.05422e-09
1.05442e-09
1.05461e-09
1.0548e-09
1.05499e-09
1.05518e-09
1.05538e-09
1.05557e-09
1.05576e-09
1.05596e-09
1.05615e-09
1.05635e-09
1.05654e-09
1.05674e-09
1.05693e-09
1.05713e-09
1.05733e-09
1.05753e-09
1.05773e-09
1.05793e-09
1.05813e-09
1.05833e-09
1.05853e-09
1.05874e-09
1.05895e-09
1.05916e-09
1.05936e-09
1.05957e-09
1.05978e-09
1.05998e-09
1.06019e-09
1.0604e-09
1.06061e-09
1.06082e-09
1.06104e-09
1.06125e-09
1.06147e-09
1.05202e-09
1.0522e-09
1.05237e-09
1.05255e-09
1.05272e-09
1.05289e-09
1.05306e-09
1.05323e-09
1.05341e-09
1.05358e-09
1.05375e-09
1.05393e-09
1.0541e-09
1.05428e-09
1.05445e-09
1.05463e-09
1.0548e-09
1.05498e-09
1.05515e-09
1.05533e-09
1.05551e-09
1.05569e-09
1.05586e-09
1.05604e-09
1.05622e-09
1.0564e-09
1.05658e-09
1.05676e-09
1.05694e-09
1.05713e-09
1.05731e-09
1.05749e-09
1.05768e-09
1.05786e-09
1.05805e-09
1.05823e-09
1.05842e-09
1.05861e-09
1.0588e-09
1.05899e-09
1.05918e-09
1.05937e-09
1.05956e-09
1.05976e-09
1.05114e-09
1.0513e-09
1.05145e-09
1.0516e-09
1.05176e-09
1.05191e-09
1.05206e-09
1.05221e-09
1.05237e-09
1.05252e-09
1.05267e-09
1.05283e-09
1.05298e-09
1.05314e-09
1.05329e-09
1.05345e-09
1.0536e-09
1.05376e-09
1.05392e-09
1.05407e-09
1.05423e-09
1.05439e-09
1.05455e-09
1.05471e-09
1.05487e-09
1.05503e-09
1.05519e-09
1.05535e-09
1.05551e-09
1.05567e-09
1.05584e-09
1.056e-09
1.05617e-09
1.05633e-09
1.0565e-09
1.05666e-09
1.05683e-09
1.057e-09
1.05717e-09
1.05734e-09
1.05751e-09
1.05768e-09
1.05785e-09
1.05803e-09
1.05025e-09
1.05038e-09
1.05052e-09
1.05065e-09
1.05079e-09
1.05092e-09
1.05105e-09
1.05119e-09
1.05132e-09
1.05145e-09
1.05159e-09
1.05172e-09
1.05186e-09
1.05199e-09
1.05213e-09
1.05227e-09
1.0524e-09
1.05254e-09
1.05268e-09
1.05281e-09
1.05295e-09
1.05309e-09
1.05323e-09
1.05337e-09
1.05351e-09
1.05365e-09
1.05379e-09
1.05393e-09
1.05407e-09
1.05421e-09
1.05435e-09
1.0545e-09
1.05464e-09
1.05478e-09
1.05493e-09
1.05508e-09
1.05522e-09
1.05537e-09
1.05552e-09
1.05567e-09
1.05581e-09
1.05596e-09
1.05611e-09
1.05627e-09
1.04936e-09
1.04948e-09
1.04959e-09
1.04971e-09
1.04982e-09
1.04993e-09
1.05005e-09
1.05016e-09
1.05028e-09
1.05039e-09
1.05051e-09
1.05062e-09
1.05074e-09
1.05086e-09
1.05097e-09
1.05109e-09
1.0512e-09
1.05132e-09
1.05144e-09
1.05156e-09
1.05167e-09
1.05179e-09
1.05191e-09
1.05203e-09
1.05215e-09
1.05227e-09
1.05239e-09
1.05251e-09
1.05263e-09
1.05275e-09
1.05288e-09
1.053e-09
1.05312e-09
1.05325e-09
1.05337e-09
1.05349e-09
1.05362e-09
1.05375e-09
1.05387e-09
1.054e-09
1.05413e-09
1.05425e-09
1.05438e-09
1.05452e-09
1.04849e-09
1.04859e-09
1.04868e-09
1.04878e-09
1.04888e-09
1.04897e-09
1.04907e-09
1.04916e-09
1.04926e-09
1.04935e-09
1.04945e-09
1.04955e-09
1.04964e-09
1.04974e-09
1.04984e-09
1.04993e-09
1.05003e-09
1.05013e-09
1.05023e-09
1.05033e-09
1.05042e-09
1.05052e-09
1.05062e-09
1.05072e-09
1.05082e-09
1.05092e-09
1.05102e-09
1.05112e-09
1.05122e-09
1.05133e-09
1.05143e-09
1.05153e-09
1.05163e-09
1.05174e-09
1.05184e-09
1.05195e-09
1.05205e-09
1.05216e-09
1.05226e-09
1.05237e-09
1.05248e-09
1.05258e-09
1.05269e-09
1.0528e-09
1.04762e-09
1.04769e-09
1.04777e-09
1.04785e-09
1.04792e-09
1.048e-09
1.04808e-09
1.04815e-09
1.04823e-09
1.04831e-09
1.04838e-09
1.04846e-09
1.04854e-09
1.04862e-09
1.0487e-09
1.04877e-09
1.04885e-09
1.04893e-09
1.04901e-09
1.04909e-09
1.04917e-09
1.04925e-09
1.04933e-09
1.04941e-09
1.04949e-09
1.04957e-09
1.04965e-09
1.04973e-09
1.04981e-09
1.04989e-09
1.04997e-09
1.05005e-09
1.05014e-09
1.05022e-09
1.0503e-09
1.05038e-09
1.05047e-09
1.05056e-09
1.05065e-09
1.05074e-09
1.05082e-09
1.05091e-09
1.051e-09
1.05108e-09
1.04675e-09
1.04681e-09
1.04687e-09
1.04693e-09
1.04698e-09
1.04704e-09
1.0471e-09
1.04716e-09
1.04722e-09
1.04728e-09
1.04733e-09
1.04739e-09
1.04745e-09
1.04751e-09
1.04757e-09
1.04763e-09
1.04769e-09
1.04775e-09
1.04781e-09
1.04787e-09
1.04793e-09
1.048e-09
1.04806e-09
1.04813e-09
1.0482e-09
1.04827e-09
1.04834e-09
1.04842e-09
1.0485e-09
1.04857e-09
1.04866e-09
1.04874e-09
1.04883e-09
1.04892e-09
1.04901e-09
1.0491e-09
1.04918e-09
1.04926e-09
1.04934e-09
1.04941e-09
1.04948e-09
1.04954e-09
1.04961e-09
1.04967e-09
1.0458e-09
1.04584e-09
1.04588e-09
1.04591e-09
1.04595e-09
1.04599e-09
1.04602e-09
1.04606e-09
1.0461e-09
1.04614e-09
1.04617e-09
1.04621e-09
1.04625e-09
1.04629e-09
1.04633e-09
1.04636e-09
1.0464e-09
1.04644e-09
1.04648e-09
1.04652e-09
1.04656e-09
1.0466e-09
1.04664e-09
1.04669e-09
1.04673e-09
1.04678e-09
1.04683e-09
1.04688e-09
1.04693e-09
1.04699e-09
1.04704e-09
1.0471e-09
1.04717e-09
1.04723e-09
1.0473e-09
1.04736e-09
1.04742e-09
1.04749e-09
1.04754e-09
1.0476e-09
1.04765e-09
1.0477e-09
1.04774e-09
1.04779e-09
1.04452e-09
1.04453e-09
1.04455e-09
1.04457e-09
1.04458e-09
1.0446e-09
1.04461e-09
1.04462e-09
1.04463e-09
1.04464e-09
1.04464e-09
1.04465e-09
1.04465e-09
1.04465e-09
1.04465e-09
1.04466e-09
1.04466e-09
1.04467e-09
1.04467e-09
1.04468e-09
1.04469e-09
1.04471e-09
1.04472e-09
1.04474e-09
1.04475e-09
1.04477e-09
1.04479e-09
1.04482e-09
1.04484e-09
1.04486e-09
1.04489e-09
1.04492e-09
1.04494e-09
1.04497e-09
1.04499e-09
1.04501e-09
1.04503e-09
1.04504e-09
1.04506e-09
1.04507e-09
1.04508e-09
1.04509e-09
1.04509e-09
1.0451e-09
1.06755e-09
1.06934e-09
1.07076e-09
1.07187e-09
1.07302e-09
1.07429e-09
1.07562e-09
1.07697e-09
1.07834e-09
1.07973e-09
1.08108e-09
1.08246e-09
1.08386e-09
1.08527e-09
1.08666e-09
1.08806e-09
1.08945e-09
1.09086e-09
1.09226e-09
1.09367e-09
1.09508e-09
1.0965e-09
1.0979e-09
1.09937e-09
1.10058e-09
1.1029e-09
1.06739e-09
1.06873e-09
1.07002e-09
1.07111e-09
1.072e-09
1.07292e-09
1.07389e-09
1.07489e-09
1.0759e-09
1.07691e-09
1.07792e-09
1.0789e-09
1.0797e-09
1.08056e-09
1.08146e-09
1.08241e-09
1.08342e-09
1.08444e-09
1.08546e-09
1.08648e-09
1.08751e-09
1.08854e-09
1.08956e-09
1.09062e-09
1.0915e-09
1.09316e-09
1.06726e-09
1.06813e-09
1.06934e-09
1.07044e-09
1.07133e-09
1.07212e-09
1.07297e-09
1.07388e-09
1.07482e-09
1.07578e-09
1.07674e-09
1.0777e-09
1.07865e-09
1.07954e-09
1.08047e-09
1.08142e-09
1.08239e-09
1.08337e-09
1.08434e-09
1.08532e-09
1.0863e-09
1.08728e-09
1.08825e-09
1.08927e-09
1.0901e-09
1.09171e-09
1.06627e-09
1.06736e-09
1.06842e-09
1.06955e-09
1.07066e-09
1.07167e-09
1.07264e-09
1.07357e-09
1.07457e-09
1.0756e-09
1.07665e-09
1.0777e-09
1.07875e-09
1.07981e-09
1.08086e-09
1.08192e-09
1.08299e-09
1.08405e-09
1.08512e-09
1.08619e-09
1.08726e-09
1.08833e-09
1.08939e-09
1.09051e-09
1.09141e-09
1.09315e-09
1.06519e-09
1.06618e-09
1.06704e-09
1.06811e-09
1.0692e-09
1.07019e-09
1.07109e-09
1.07195e-09
1.07283e-09
1.07375e-09
1.07468e-09
1.07563e-09
1.07657e-09
1.07752e-09
1.07847e-09
1.07942e-09
1.08037e-09
1.08133e-09
1.08229e-09
1.08324e-09
1.0842e-09
1.08516e-09
1.08612e-09
1.08711e-09
1.08793e-09
1.08951e-09
1.06358e-09
1.06452e-09
1.06544e-09
1.06634e-09
1.0673e-09
1.06827e-09
1.06919e-09
1.07007e-09
1.07092e-09
1.07177e-09
1.07263e-09
1.07352e-09
1.07443e-09
1.07535e-09
1.07627e-09
1.0772e-09
1.07813e-09
1.07906e-09
1.07999e-09
1.08093e-09
1.08186e-09
1.0828e-09
1.08371e-09
1.08467e-09
1.08545e-09
1.08696e-09
1.062e-09
1.06283e-09
1.06366e-09
1.06448e-09
1.06529e-09
1.06612e-09
1.06697e-09
1.06779e-09
1.06858e-09
1.06935e-09
1.07013e-09
1.07093e-09
1.07175e-09
1.07257e-09
1.0734e-09
1.07423e-09
1.07505e-09
1.07588e-09
1.07671e-09
1.07755e-09
1.07838e-09
1.07921e-09
1.08004e-09
1.08091e-09
1.08162e-09
1.08298e-09
1.06025e-09
1.06101e-09
1.06177e-09
1.06253e-09
1.06329e-09
1.06404e-09
1.0648e-09
1.06557e-09
1.06632e-09
1.06706e-09
1.06778e-09
1.06849e-09
1.06921e-09
1.06993e-09
1.07066e-09
1.0714e-09
1.07214e-09
1.07289e-09
1.07364e-09
1.07439e-09
1.07513e-09
1.07588e-09
1.07662e-09
1.07739e-09
1.07803e-09
1.07927e-09
1.05846e-09
1.05913e-09
1.0598e-09
1.06046e-09
1.06112e-09
1.06179e-09
1.06245e-09
1.06311e-09
1.06377e-09
1.06444e-09
1.06509e-09
1.06573e-09
1.06636e-09
1.067e-09
1.06765e-09
1.06832e-09
1.06898e-09
1.06965e-09
1.07032e-09
1.07099e-09
1.07166e-09
1.07234e-09
1.073e-09
1.0737e-09
1.07426e-09
1.07535e-09
1.05664e-09
1.05724e-09
1.05783e-09
1.05842e-09
1.059e-09
1.05959e-09
1.06018e-09
1.06076e-09
1.06135e-09
1.06194e-09
1.06252e-09
1.06311e-09
1.0637e-09
1.06429e-09
1.06487e-09
1.06544e-09
1.066e-09
1.06656e-09
1.06713e-09
1.06769e-09
1.06826e-09
1.06883e-09
1.0694e-09
1.06999e-09
1.07048e-09
1.07144e-09
1.05483e-09
1.05534e-09
1.05584e-09
1.05634e-09
1.05684e-09
1.05734e-09
1.05784e-09
1.05834e-09
1.05884e-09
1.05934e-09
1.05983e-09
1.06033e-09
1.06083e-09
1.06133e-09
1.06184e-09
1.06233e-09
1.06282e-09
1.06331e-09
1.06379e-09
1.06428e-09
1.06476e-09
1.06525e-09
1.06574e-09
1.06625e-09
1.06667e-09
1.06749e-09
1.05307e-09
1.05349e-09
1.05391e-09
1.05433e-09
1.05476e-09
1.05518e-09
1.0556e-09
1.05602e-09
1.05643e-09
1.05685e-09
1.05727e-09
1.05769e-09
1.05811e-09
1.05853e-09
1.05896e-09
1.05938e-09
1.0598e-09
1.06022e-09
1.06064e-09
1.06106e-09
1.06147e-09
1.06188e-09
1.06228e-09
1.06271e-09
1.06306e-09
1.06374e-09
1.0513e-09
1.05163e-09
1.05197e-09
1.05231e-09
1.05265e-09
1.05298e-09
1.05332e-09
1.05365e-09
1.05399e-09
1.05433e-09
1.05466e-09
1.055e-09
1.05533e-09
1.05567e-09
1.05601e-09
1.05634e-09
1.05668e-09
1.05702e-09
1.05736e-09
1.05769e-09
1.05803e-09
1.05836e-09
1.05869e-09
1.05903e-09
1.05932e-09
1.05986e-09
1.04984e-09
1.05009e-09
1.05035e-09
1.05061e-09
1.05086e-09
1.05112e-09
1.05138e-09
1.05163e-09
1.05189e-09
1.05215e-09
1.0524e-09
1.05266e-09
1.05291e-09
1.05317e-09
1.05343e-09
1.05368e-09
1.05394e-09
1.0542e-09
1.05445e-09
1.0547e-09
1.05495e-09
1.0552e-09
1.05545e-09
1.05571e-09
1.05593e-09
1.05634e-09
1.0479e-09
1.04807e-09
1.04823e-09
1.0484e-09
1.04857e-09
1.04874e-09
1.04891e-09
1.04907e-09
1.04924e-09
1.04941e-09
1.04958e-09
1.04974e-09
1.04991e-09
1.05008e-09
1.05025e-09
1.05041e-09
1.05058e-09
1.05075e-09
1.05092e-09
1.05108e-09
1.05125e-09
1.05141e-09
1.05158e-09
1.05175e-09
1.05189e-09
1.05217e-09
1.0451e-09
1.04515e-09
1.04521e-09
1.04528e-09
1.04534e-09
1.04541e-09
1.04547e-09
1.04555e-09
1.04563e-09
1.04571e-09
1.0458e-09
1.04589e-09
1.04597e-09
1.04605e-09
1.04613e-09
1.04621e-09
1.04628e-09
1.04635e-09
1.04642e-09
1.04649e-09
1.04656e-09
1.04663e-09
1.04669e-09
1.04676e-09
1.04683e-09
1.04686e-09
1.04461e-09
1.04565e-09
1.04669e-09
1.04773e-09
1.04877e-09
1.04981e-09
1.05085e-09
1.05189e-09
1.05291e-09
1.05394e-09
1.04463e-09
1.04571e-09
1.04679e-09
1.04787e-09
1.04895e-09
1.05003e-09
1.05112e-09
1.05219e-09
1.05331e-09
1.05427e-09
1.04463e-09
1.04571e-09
1.0468e-09
1.04788e-09
1.04897e-09
1.05005e-09
1.05114e-09
1.05223e-09
1.05332e-09
1.0544e-09
1.04462e-09
1.04567e-09
1.04673e-09
1.04778e-09
1.04884e-09
1.0499e-09
1.05096e-09
1.05203e-09
1.05309e-09
1.05416e-09
1.0446e-09
1.0456e-09
1.0466e-09
1.04761e-09
1.04861e-09
1.04962e-09
1.05063e-09
1.05165e-09
1.05266e-09
1.0537e-09
1.04456e-09
1.0455e-09
1.04643e-09
1.04737e-09
1.04831e-09
1.04926e-09
1.0502e-09
1.05115e-09
1.05209e-09
1.05306e-09
1.04452e-09
1.04538e-09
1.04624e-09
1.0471e-09
1.04796e-09
1.04883e-09
1.04969e-09
1.05057e-09
1.05143e-09
1.05232e-09
1.04448e-09
1.04526e-09
1.04603e-09
1.04681e-09
1.04759e-09
1.04837e-09
1.04915e-09
1.04994e-09
1.05071e-09
1.05152e-09
1.04444e-09
1.04513e-09
1.04582e-09
1.04651e-09
1.0472e-09
1.04789e-09
1.04859e-09
1.04929e-09
1.04998e-09
1.05069e-09
1.0444e-09
1.045e-09
1.0456e-09
1.0462e-09
1.04681e-09
1.04741e-09
1.04802e-09
1.04863e-09
1.04923e-09
1.04986e-09
1.04435e-09
1.04487e-09
1.04538e-09
1.0459e-09
1.04642e-09
1.04694e-09
1.04746e-09
1.04798e-09
1.0485e-09
1.04903e-09
1.04431e-09
1.04474e-09
1.04517e-09
1.0456e-09
1.04603e-09
1.04647e-09
1.0469e-09
1.04734e-09
1.04776e-09
1.04821e-09
1.04427e-09
1.04461e-09
1.04496e-09
1.0453e-09
1.04565e-09
1.046e-09
1.04635e-09
1.0467e-09
1.04704e-09
1.0474e-09
1.04422e-09
1.04448e-09
1.04474e-09
1.045e-09
1.04526e-09
1.04553e-09
1.04579e-09
1.04605e-09
1.04631e-09
1.04658e-09
1.04418e-09
1.04434e-09
1.04451e-09
1.04468e-09
1.04485e-09
1.04502e-09
1.04518e-09
1.04535e-09
1.04552e-09
1.0457e-09
1.04412e-09
1.04418e-09
1.04424e-09
1.0443e-09
1.04436e-09
1.0444e-09
1.04444e-09
1.04446e-09
1.04448e-09
1.04449e-09
1.0546e-09
1.05481e-09
1.055e-09
1.05518e-09
1.05536e-09
1.05555e-09
1.05573e-09
1.05591e-09
1.05609e-09
1.05626e-09
1.05644e-09
1.05662e-09
1.0568e-09
1.05699e-09
1.05717e-09
1.05737e-09
1.05758e-09
1.0578e-09
1.05804e-09
1.0583e-09
1.05858e-09
1.05889e-09
1.05926e-09
1.05967e-09
1.06027e-09
1.06094e-09
1.06148e-09
1.06179e-09
1.06201e-09
1.06219e-09
1.06236e-09
1.06253e-09
1.0627e-09
1.06287e-09
1.06305e-09
1.06323e-09
1.06341e-09
1.0636e-09
1.06377e-09
1.06402e-09
1.06441e-09
1.06489e-09
1.06547e-09
1.06605e-09
1.055e-09
1.05529e-09
1.05561e-09
1.05587e-09
1.05612e-09
1.05637e-09
1.05661e-09
1.05686e-09
1.0571e-09
1.05734e-09
1.05759e-09
1.05783e-09
1.05806e-09
1.05829e-09
1.05852e-09
1.05874e-09
1.05897e-09
1.05918e-09
1.0594e-09
1.05961e-09
1.05983e-09
1.06004e-09
1.06025e-09
1.06048e-09
1.06066e-09
1.06096e-09
1.06126e-09
1.06152e-09
1.06176e-09
1.06199e-09
1.06221e-09
1.06244e-09
1.06266e-09
1.06289e-09
1.06311e-09
1.06333e-09
1.06355e-09
1.06376e-09
1.06398e-09
1.06429e-09
1.06469e-09
1.06518e-09
1.0657e-09
1.06633e-09
1.05511e-09
1.05536e-09
1.05562e-09
1.05587e-09
1.05611e-09
1.05635e-09
1.05659e-09
1.05683e-09
1.05707e-09
1.05731e-09
1.05755e-09
1.05779e-09
1.05803e-09
1.05827e-09
1.05851e-09
1.05875e-09
1.05899e-09
1.05923e-09
1.05947e-09
1.05971e-09
1.05995e-09
1.0602e-09
1.06048e-09
1.0608e-09
1.0612e-09
1.06169e-09
1.06217e-09
1.06262e-09
1.06294e-09
1.0632e-09
1.06344e-09
1.06367e-09
1.0639e-09
1.06413e-09
1.06436e-09
1.06459e-09
1.06482e-09
1.06505e-09
1.06528e-09
1.0655e-09
1.06575e-09
1.06593e-09
1.06625e-09
1.06654e-09
1.05484e-09
1.05508e-09
1.05532e-09
1.05556e-09
1.0558e-09
1.05604e-09
1.05628e-09
1.05651e-09
1.05675e-09
1.05699e-09
1.05723e-09
1.05747e-09
1.05771e-09
1.05795e-09
1.05819e-09
1.05842e-09
1.05866e-09
1.0589e-09
1.05914e-09
1.05938e-09
1.05961e-09
1.05985e-09
1.06009e-09
1.06033e-09
1.06056e-09
1.06081e-09
1.06111e-09
1.06138e-09
1.06164e-09
1.06189e-09
1.06213e-09
1.06238e-09
1.06263e-09
1.06287e-09
1.06312e-09
1.06337e-09
1.06362e-09
1.06387e-09
1.06411e-09
1.06436e-09
1.06461e-09
1.06486e-09
1.06515e-09
1.06553e-09
1.05435e-09
1.05459e-09
1.05481e-09
1.05504e-09
1.05526e-09
1.05549e-09
1.05571e-09
1.05593e-09
1.05616e-09
1.05638e-09
1.05661e-09
1.05683e-09
1.05706e-09
1.05728e-09
1.05751e-09
1.05773e-09
1.05796e-09
1.05818e-09
1.05841e-09
1.05864e-09
1.05887e-09
1.05909e-09
1.05932e-09
1.05955e-09
1.05978e-09
1.06001e-09
1.06029e-09
1.0606e-09
1.06095e-09
1.06123e-09
1.06148e-09
1.06172e-09
1.06195e-09
1.06219e-09
1.06242e-09
1.06266e-09
1.06289e-09
1.06313e-09
1.06337e-09
1.06361e-09
1.06385e-09
1.06409e-09
1.06432e-09
1.06457e-09
1.05367e-09
1.05388e-09
1.05409e-09
1.0543e-09
1.05451e-09
1.05472e-09
1.05493e-09
1.05514e-09
1.05535e-09
1.05556e-09
1.05577e-09
1.05598e-09
1.05619e-09
1.0564e-09
1.05661e-09
1.05683e-09
1.05704e-09
1.05725e-09
1.05746e-09
1.05768e-09
1.05789e-09
1.05811e-09
1.05832e-09
1.05853e-09
1.05875e-09
1.05896e-09
1.05918e-09
1.0594e-09
1.05962e-09
1.05984e-09
1.06006e-09
1.06028e-09
1.0605e-09
1.06072e-09
1.06094e-09
1.06117e-09
1.06139e-09
1.06162e-09
1.06184e-09
1.06207e-09
1.0623e-09
1.06253e-09
1.06275e-09
1.06299e-09
1.05288e-09
1.05308e-09
1.05327e-09
1.05346e-09
1.05365e-09
1.05384e-09
1.05403e-09
1.05422e-09
1.05442e-09
1.05461e-09
1.0548e-09
1.05499e-09
1.05518e-09
1.05538e-09
1.05557e-09
1.05576e-09
1.05596e-09
1.05615e-09
1.05635e-09
1.05654e-09
1.05674e-09
1.05694e-09
1.05713e-09
1.05733e-09
1.05753e-09
1.05773e-09
1.05793e-09
1.05813e-09
1.05833e-09
1.05853e-09
1.05875e-09
1.05896e-09
1.05916e-09
1.05937e-09
1.05957e-09
1.05978e-09
1.05999e-09
1.0602e-09
1.06041e-09
1.06062e-09
1.06083e-09
1.06104e-09
1.06125e-09
1.06147e-09
1.05202e-09
1.0522e-09
1.05237e-09
1.05255e-09
1.05272e-09
1.05289e-09
1.05306e-09
1.05323e-09
1.05341e-09
1.05358e-09
1.05375e-09
1.05393e-09
1.0541e-09
1.05428e-09
1.05445e-09
1.05463e-09
1.0548e-09
1.05498e-09
1.05516e-09
1.05533e-09
1.05551e-09
1.05569e-09
1.05587e-09
1.05605e-09
1.05622e-09
1.0564e-09
1.05658e-09
1.05677e-09
1.05695e-09
1.05713e-09
1.05731e-09
1.0575e-09
1.05768e-09
1.05787e-09
1.05805e-09
1.05824e-09
1.05843e-09
1.05861e-09
1.0588e-09
1.05899e-09
1.05918e-09
1.05937e-09
1.05957e-09
1.05976e-09
1.05114e-09
1.0513e-09
1.05145e-09
1.0516e-09
1.05176e-09
1.05191e-09
1.05206e-09
1.05221e-09
1.05237e-09
1.05252e-09
1.05267e-09
1.05283e-09
1.05298e-09
1.05314e-09
1.05329e-09
1.05345e-09
1.0536e-09
1.05376e-09
1.05392e-09
1.05408e-09
1.05423e-09
1.05439e-09
1.05455e-09
1.05471e-09
1.05487e-09
1.05503e-09
1.05519e-09
1.05535e-09
1.05551e-09
1.05568e-09
1.05584e-09
1.056e-09
1.05617e-09
1.05633e-09
1.0565e-09
1.05667e-09
1.05683e-09
1.057e-09
1.05717e-09
1.05734e-09
1.05751e-09
1.05769e-09
1.05786e-09
1.05803e-09
1.05025e-09
1.05038e-09
1.05052e-09
1.05065e-09
1.05079e-09
1.05092e-09
1.05105e-09
1.05119e-09
1.05132e-09
1.05146e-09
1.05159e-09
1.05172e-09
1.05186e-09
1.052e-09
1.05213e-09
1.05227e-09
1.0524e-09
1.05254e-09
1.05268e-09
1.05281e-09
1.05295e-09
1.05309e-09
1.05323e-09
1.05337e-09
1.05351e-09
1.05365e-09
1.05379e-09
1.05393e-09
1.05407e-09
1.05421e-09
1.05436e-09
1.0545e-09
1.05464e-09
1.05479e-09
1.05493e-09
1.05508e-09
1.05522e-09
1.05537e-09
1.05552e-09
1.05567e-09
1.05582e-09
1.05597e-09
1.05612e-09
1.05627e-09
1.04936e-09
1.04948e-09
1.04959e-09
1.04971e-09
1.04982e-09
1.04993e-09
1.05005e-09
1.05016e-09
1.05028e-09
1.05039e-09
1.05051e-09
1.05062e-09
1.05074e-09
1.05086e-09
1.05097e-09
1.05109e-09
1.05121e-09
1.05132e-09
1.05144e-09
1.05156e-09
1.05168e-09
1.05179e-09
1.05191e-09
1.05203e-09
1.05215e-09
1.05227e-09
1.05239e-09
1.05251e-09
1.05263e-09
1.05276e-09
1.05288e-09
1.053e-09
1.05312e-09
1.05325e-09
1.05337e-09
1.0535e-09
1.05362e-09
1.05375e-09
1.05387e-09
1.054e-09
1.05413e-09
1.05426e-09
1.05438e-09
1.05452e-09
1.04849e-09
1.04859e-09
1.04868e-09
1.04878e-09
1.04888e-09
1.04897e-09
1.04907e-09
1.04916e-09
1.04926e-09
1.04935e-09
1.04945e-09
1.04955e-09
1.04964e-09
1.04974e-09
1.04984e-09
1.04993e-09
1.05003e-09
1.05013e-09
1.05023e-09
1.05033e-09
1.05042e-09
1.05052e-09
1.05062e-09
1.05072e-09
1.05082e-09
1.05092e-09
1.05102e-09
1.05112e-09
1.05123e-09
1.05133e-09
1.05143e-09
1.05153e-09
1.05164e-09
1.05174e-09
1.05184e-09
1.05195e-09
1.05205e-09
1.05216e-09
1.05226e-09
1.05237e-09
1.05248e-09
1.05258e-09
1.05269e-09
1.0528e-09
1.04762e-09
1.04769e-09
1.04777e-09
1.04785e-09
1.04792e-09
1.048e-09
1.04808e-09
1.04815e-09
1.04823e-09
1.04831e-09
1.04839e-09
1.04846e-09
1.04854e-09
1.04862e-09
1.0487e-09
1.04877e-09
1.04885e-09
1.04893e-09
1.04901e-09
1.04909e-09
1.04917e-09
1.04925e-09
1.04933e-09
1.04941e-09
1.04949e-09
1.04957e-09
1.04965e-09
1.04973e-09
1.04981e-09
1.04989e-09
1.04997e-09
1.05006e-09
1.05014e-09
1.05022e-09
1.0503e-09
1.05039e-09
1.05047e-09
1.05056e-09
1.05065e-09
1.05074e-09
1.05083e-09
1.05091e-09
1.051e-09
1.05108e-09
1.04675e-09
1.04681e-09
1.04687e-09
1.04693e-09
1.04698e-09
1.04704e-09
1.0471e-09
1.04716e-09
1.04722e-09
1.04728e-09
1.04733e-09
1.04739e-09
1.04745e-09
1.04751e-09
1.04757e-09
1.04763e-09
1.04769e-09
1.04775e-09
1.04781e-09
1.04787e-09
1.04794e-09
1.048e-09
1.04807e-09
1.04813e-09
1.0482e-09
1.04827e-09
1.04834e-09
1.04842e-09
1.0485e-09
1.04858e-09
1.04866e-09
1.04874e-09
1.04883e-09
1.04892e-09
1.04901e-09
1.0491e-09
1.04918e-09
1.04926e-09
1.04934e-09
1.04941e-09
1.04948e-09
1.04955e-09
1.04961e-09
1.04968e-09
1.0458e-09
1.04584e-09
1.04588e-09
1.04591e-09
1.04595e-09
1.04599e-09
1.04602e-09
1.04606e-09
1.0461e-09
1.04614e-09
1.04617e-09
1.04621e-09
1.04625e-09
1.04629e-09
1.04633e-09
1.04637e-09
1.0464e-09
1.04644e-09
1.04648e-09
1.04652e-09
1.04656e-09
1.0466e-09
1.04664e-09
1.04669e-09
1.04673e-09
1.04678e-09
1.04683e-09
1.04688e-09
1.04693e-09
1.04699e-09
1.04704e-09
1.0471e-09
1.04717e-09
1.04723e-09
1.0473e-09
1.04736e-09
1.04742e-09
1.04749e-09
1.04754e-09
1.0476e-09
1.04765e-09
1.0477e-09
1.04775e-09
1.04779e-09
1.04452e-09
1.04453e-09
1.04455e-09
1.04457e-09
1.04458e-09
1.0446e-09
1.04461e-09
1.04462e-09
1.04463e-09
1.04464e-09
1.04464e-09
1.04465e-09
1.04465e-09
1.04465e-09
1.04465e-09
1.04466e-09
1.04466e-09
1.04467e-09
1.04467e-09
1.04468e-09
1.04469e-09
1.04471e-09
1.04472e-09
1.04474e-09
1.04476e-09
1.04477e-09
1.04479e-09
1.04482e-09
1.04484e-09
1.04486e-09
1.04489e-09
1.04492e-09
1.04494e-09
1.04497e-09
1.04499e-09
1.04501e-09
1.04503e-09
1.04504e-09
1.04506e-09
1.04507e-09
1.04508e-09
1.04509e-09
1.04509e-09
1.0451e-09
1.06756e-09
1.06935e-09
1.07078e-09
1.07188e-09
1.07303e-09
1.0743e-09
1.07563e-09
1.07699e-09
1.07836e-09
1.07975e-09
1.0811e-09
1.08248e-09
1.08388e-09
1.08528e-09
1.08668e-09
1.08808e-09
1.08947e-09
1.09087e-09
1.09228e-09
1.09369e-09
1.0951e-09
1.09651e-09
1.09792e-09
1.09938e-09
1.10059e-09
1.10291e-09
1.0674e-09
1.06874e-09
1.07002e-09
1.07112e-09
1.07201e-09
1.07293e-09
1.0739e-09
1.0749e-09
1.07591e-09
1.07692e-09
1.07794e-09
1.07891e-09
1.07972e-09
1.08057e-09
1.08148e-09
1.08243e-09
1.08344e-09
1.08446e-09
1.08548e-09
1.08651e-09
1.08753e-09
1.08856e-09
1.08958e-09
1.09064e-09
1.09152e-09
1.09318e-09
1.06727e-09
1.06813e-09
1.06935e-09
1.07045e-09
1.07134e-09
1.07213e-09
1.07298e-09
1.07389e-09
1.07483e-09
1.07579e-09
1.07675e-09
1.07771e-09
1.07867e-09
1.07956e-09
1.08048e-09
1.08144e-09
1.08241e-09
1.08339e-09
1.08436e-09
1.08534e-09
1.08632e-09
1.0873e-09
1.08827e-09
1.08928e-09
1.09012e-09
1.09173e-09
1.06627e-09
1.06737e-09
1.06842e-09
1.06956e-09
1.07067e-09
1.07168e-09
1.07265e-09
1.07358e-09
1.07458e-09
1.07561e-09
1.07666e-09
1.07771e-09
1.07877e-09
1.07982e-09
1.08088e-09
1.08194e-09
1.083e-09
1.08407e-09
1.08513e-09
1.0862e-09
1.08727e-09
1.08834e-09
1.08941e-09
1.09052e-09
1.09142e-09
1.09316e-09
1.06519e-09
1.06618e-09
1.06705e-09
1.06812e-09
1.06921e-09
1.0702e-09
1.0711e-09
1.07196e-09
1.07284e-09
1.07376e-09
1.07469e-09
1.07564e-09
1.07658e-09
1.07753e-09
1.07848e-09
1.07943e-09
1.08039e-09
1.08134e-09
1.0823e-09
1.08326e-09
1.08421e-09
1.08517e-09
1.08613e-09
1.08712e-09
1.08794e-09
1.08952e-09
1.06359e-09
1.06452e-09
1.06545e-09
1.06635e-09
1.06731e-09
1.06827e-09
1.0692e-09
1.07008e-09
1.07093e-09
1.07178e-09
1.07264e-09
1.07353e-09
1.07444e-09
1.07536e-09
1.07628e-09
1.07721e-09
1.07814e-09
1.07907e-09
1.08e-09
1.08094e-09
1.08187e-09
1.08281e-09
1.08372e-09
1.08467e-09
1.08545e-09
1.08697e-09
1.062e-09
1.06284e-09
1.06366e-09
1.06448e-09
1.06529e-09
1.06613e-09
1.06698e-09
1.0678e-09
1.06859e-09
1.06936e-09
1.07014e-09
1.07094e-09
1.07176e-09
1.07258e-09
1.07341e-09
1.07423e-09
1.07506e-09
1.07589e-09
1.07672e-09
1.07756e-09
1.07839e-09
1.07922e-09
1.08005e-09
1.08091e-09
1.08163e-09
1.08299e-09
1.06025e-09
1.06102e-09
1.06178e-09
1.06254e-09
1.06329e-09
1.06405e-09
1.06481e-09
1.06557e-09
1.06633e-09
1.06707e-09
1.06779e-09
1.0685e-09
1.06921e-09
1.06994e-09
1.07067e-09
1.07141e-09
1.07215e-09
1.0729e-09
1.07364e-09
1.07439e-09
1.07514e-09
1.07589e-09
1.07663e-09
1.0774e-09
1.07804e-09
1.07928e-09
1.05846e-09
1.05913e-09
1.0598e-09
1.06047e-09
1.06113e-09
1.06179e-09
1.06245e-09
1.06312e-09
1.06378e-09
1.06444e-09
1.0651e-09
1.06574e-09
1.06637e-09
1.06701e-09
1.06766e-09
1.06832e-09
1.06899e-09
1.06966e-09
1.07033e-09
1.071e-09
1.07167e-09
1.07234e-09
1.07301e-09
1.0737e-09
1.07427e-09
1.07536e-09
1.05665e-09
1.05724e-09
1.05783e-09
1.05842e-09
1.05901e-09
1.05959e-09
1.06018e-09
1.06077e-09
1.06135e-09
1.06194e-09
1.06253e-09
1.06312e-09
1.0637e-09
1.06429e-09
1.06488e-09
1.06544e-09
1.06601e-09
1.06657e-09
1.06713e-09
1.0677e-09
1.06827e-09
1.06883e-09
1.0694e-09
1.07e-09
1.07049e-09
1.07144e-09
1.05483e-09
1.05534e-09
1.05584e-09
1.05634e-09
1.05684e-09
1.05734e-09
1.05784e-09
1.05834e-09
1.05884e-09
1.05934e-09
1.05984e-09
1.06034e-09
1.06084e-09
1.06134e-09
1.06184e-09
1.06234e-09
1.06283e-09
1.06331e-09
1.0638e-09
1.06428e-09
1.06477e-09
1.06526e-09
1.06574e-09
1.06626e-09
1.06668e-09
1.06749e-09
1.05307e-09
1.05349e-09
1.05392e-09
1.05434e-09
1.05476e-09
1.05518e-09
1.0556e-09
1.05602e-09
1.05644e-09
1.05686e-09
1.05728e-09
1.0577e-09
1.05812e-09
1.05854e-09
1.05896e-09
1.05938e-09
1.0598e-09
1.06022e-09
1.06065e-09