/*--------------------------------*- C++ -*----------------------------------*\
| =========                 |                                                 |
| \\      /  F ield         | OpenFOAM: The Open Source CFD Toolbox           |
|  \\    /   O peration     | Version:  2412                                  |
|   \\  /    A nd           | Website:  www.openfoam.com                      |
|    \\/     M anipulation  |                                                 |
\*---------------------------------------------------------------------------*/
FoamFile
{
    version     2.0;
    format      ascii;
    arch        "LSB;label=32;scalar=64";
    class       volScalarField;
    location    "1500";
    object      nuTilda;
}
// * * * * * * * * * * * * * * * * * * * * * * * * * * * * * * * * * * * * * //

dimensions      [0 2 -1 0 0 0 0];

internalField   nonuniform List<scalar> 
8896
(
5.84072e-06
5.84217e-06
5.84362e-06
5.84508e-06
5.84653e-06
5.84798e-06
5.84942e-06
5.85087e-06
5.85229e-06
5.85372e-06
5.84075e-06
5.84225e-06
5.84376e-06
5.84527e-06
5.84678e-06
5.84829e-06
5.8498e-06
5.85128e-06
5.85284e-06
5.85418e-06
5.84075e-06
5.84226e-06
5.84377e-06
5.84529e-06
5.8468e-06
5.84832e-06
5.84983e-06
5.85135e-06
5.85286e-06
5.85436e-06
5.84073e-06
5.8422e-06
5.84368e-06
5.84515e-06
5.84663e-06
5.84811e-06
5.84958e-06
5.85107e-06
5.85254e-06
5.85403e-06
5.8407e-06
5.8421e-06
5.8435e-06
5.8449e-06
5.84631e-06
5.84772e-06
5.84912e-06
5.85054e-06
5.85194e-06
5.85338e-06
5.84065e-06
5.84196e-06
5.84327e-06
5.84458e-06
5.84589e-06
5.8472e-06
5.84852e-06
5.84984e-06
5.85115e-06
5.85249e-06
5.8406e-06
5.8418e-06
5.843e-06
5.8442e-06
5.8454e-06
5.84661e-06
5.84782e-06
5.84903e-06
5.85023e-06
5.85147e-06
5.84054e-06
5.84162e-06
5.84271e-06
5.84379e-06
5.84488e-06
5.84597e-06
5.84706e-06
5.84815e-06
5.84924e-06
5.85036e-06
5.84048e-06
5.84144e-06
5.84241e-06
5.84337e-06
5.84434e-06
5.84531e-06
5.84627e-06
5.84725e-06
5.84821e-06
5.84921e-06
5.84042e-06
5.84126e-06
5.8421e-06
5.84295e-06
5.84379e-06
5.84464e-06
5.84548e-06
5.84633e-06
5.84717e-06
5.84805e-06
5.84036e-06
5.84108e-06
5.8418e-06
5.84252e-06
5.84325e-06
5.84397e-06
5.8447e-06
5.84542e-06
5.84615e-06
5.84689e-06
5.8403e-06
5.8409e-06
5.8415e-06
5.84211e-06
5.84271e-06
5.84331e-06
5.84392e-06
5.84453e-06
5.84513e-06
5.84575e-06
5.84024e-06
5.84072e-06
5.84121e-06
5.84169e-06
5.84217e-06
5.84266e-06
5.84314e-06
5.84363e-06
5.84412e-06
5.84461e-06
5.84018e-06
5.84054e-06
5.84091e-06
5.84127e-06
5.84163e-06
5.842e-06
5.84236e-06
5.84273e-06
5.84309e-06
5.84347e-06
5.84011e-06
5.84035e-06
5.84058e-06
5.84082e-06
5.84105e-06
5.84129e-06
5.84152e-06
5.84176e-06
5.842e-06
5.84224e-06
5.84004e-06
5.84012e-06
5.8402e-06
5.84029e-06
5.84036e-06
5.84043e-06
5.84048e-06
5.84051e-06
5.84054e-06
5.84056e-06
5.85464e-06
5.85493e-06
5.85519e-06
5.85544e-06
5.8557e-06
5.85595e-06
5.8562e-06
5.85645e-06
5.8567e-06
5.85694e-06
5.85719e-06
5.85744e-06
5.85769e-06
5.85794e-06
5.8582e-06
5.85847e-06
5.85876e-06
5.85907e-06
5.85939e-06
5.85975e-06
5.86014e-06
5.86058e-06
5.86109e-06
5.86165e-06
5.86248e-06
5.86341e-06
5.86415e-06
5.86459e-06
5.86488e-06
5.86513e-06
5.86537e-06
5.8656e-06
5.86584e-06
5.86607e-06
5.86631e-06
5.86656e-06
5.86681e-06
5.86707e-06
5.86731e-06
5.86766e-06
5.8682e-06
5.86886e-06
5.86966e-06
5.87045e-06
5.85519e-06
5.8556e-06
5.85604e-06
5.8564e-06
5.85675e-06
5.85709e-06
5.85742e-06
5.85776e-06
5.8581e-06
5.85844e-06
5.85877e-06
5.8591e-06
5.85943e-06
5.85975e-06
5.86006e-06
5.86037e-06
5.86068e-06
5.86098e-06
5.86128e-06
5.86157e-06
5.86187e-06
5.86216e-06
5.86245e-06
5.86277e-06
5.86301e-06
5.86343e-06
5.86385e-06
5.86421e-06
5.86454e-06
5.86485e-06
5.86516e-06
5.86548e-06
5.86579e-06
5.86609e-06
5.8664e-06
5.8667e-06
5.86701e-06
5.86729e-06
5.8676e-06
5.86803e-06
5.86858e-06
5.86925e-06
5.86997e-06
5.87084e-06
5.85534e-06
5.8557e-06
5.85605e-06
5.85639e-06
5.85673e-06
5.85707e-06
5.8574e-06
5.85773e-06
5.85806e-06
5.8584e-06
5.85873e-06
5.85906e-06
5.85939e-06
5.85972e-06
5.86005e-06
5.86038e-06
5.86071e-06
5.86105e-06
5.86138e-06
5.86171e-06
5.86204e-06
5.86239e-06
5.86278e-06
5.86322e-06
5.86377e-06
5.86445e-06
5.8651e-06
5.86572e-06
5.86617e-06
5.86652e-06
5.86686e-06
5.86718e-06
5.86749e-06
5.86781e-06
5.86813e-06
5.86845e-06
5.86876e-06
5.86908e-06
5.8694e-06
5.8697e-06
5.87004e-06
5.87029e-06
5.87073e-06
5.87114e-06
5.85497e-06
5.85531e-06
5.85564e-06
5.85597e-06
5.8563e-06
5.85663e-06
5.85696e-06
5.85729e-06
5.85762e-06
5.85795e-06
5.85828e-06
5.85861e-06
5.85894e-06
5.85927e-06
5.8596e-06
5.85993e-06
5.86026e-06
5.86059e-06
5.86092e-06
5.86125e-06
5.86158e-06
5.8619e-06
5.86223e-06
5.86256e-06
5.86289e-06
5.86323e-06
5.86364e-06
5.86402e-06
5.86437e-06
5.86472e-06
5.86506e-06
5.8654e-06
5.86574e-06
5.86608e-06
5.86642e-06
5.86676e-06
5.8671e-06
5.86745e-06
5.86779e-06
5.86813e-06
5.86847e-06
5.86882e-06
5.86921e-06
5.86974e-06
5.85429e-06
5.85462e-06
5.85493e-06
5.85524e-06
5.85555e-06
5.85587e-06
5.85618e-06
5.85649e-06
5.8568e-06
5.85711e-06
5.85742e-06
5.85773e-06
5.85804e-06
5.85835e-06
5.85866e-06
5.85897e-06
5.85929e-06
5.8596e-06
5.85991e-06
5.86023e-06
5.86054e-06
5.86086e-06
5.86117e-06
5.86149e-06
5.86181e-06
5.86213e-06
5.86251e-06
5.86295e-06
5.86343e-06
5.86382e-06
5.86416e-06
5.86449e-06
5.86481e-06
5.86513e-06
5.86546e-06
5.86578e-06
5.86611e-06
5.86643e-06
5.86676e-06
5.86709e-06
5.86742e-06
5.86775e-06
5.86808e-06
5.86843e-06
5.85334e-06
5.85364e-06
5.85393e-06
5.85422e-06
5.85451e-06
5.8548e-06
5.85509e-06
5.85538e-06
5.85567e-06
5.85596e-06
5.85626e-06
5.85655e-06
5.85684e-06
5.85713e-06
5.85743e-06
5.85772e-06
5.85801e-06
5.85831e-06
5.8586e-06
5.8589e-06
5.85919e-06
5.85949e-06
5.85979e-06
5.86008e-06
5.86038e-06
5.86068e-06
5.86098e-06
5.86128e-06
5.86158e-06
5.86188e-06
5.86219e-06
5.86249e-06
5.8628e-06
5.86311e-06
5.86342e-06
5.86372e-06
5.86403e-06
5.86434e-06
5.86466e-06
5.86497e-06
5.86528e-06
5.8656e-06
5.86591e-06
5.86624e-06
5.85225e-06
5.85252e-06
5.85279e-06
5.85305e-06
5.85332e-06
5.85358e-06
5.85385e-06
5.85411e-06
5.85438e-06
5.85465e-06
5.85491e-06
5.85518e-06
5.85545e-06
5.85571e-06
5.85598e-06
5.85625e-06
5.85652e-06
5.85679e-06
5.85706e-06
5.85733e-06
5.8576e-06
5.85787e-06
5.85815e-06
5.85842e-06
5.8587e-06
5.85897e-06
5.85925e-06
5.85953e-06
5.85981e-06
5.86008e-06
5.86038e-06
5.86067e-06
5.86095e-06
5.86124e-06
5.86152e-06
5.86181e-06
5.86209e-06
5.86238e-06
5.86267e-06
5.86296e-06
5.86325e-06
5.86355e-06
5.86384e-06
5.86415e-06
5.85105e-06
5.8513e-06
5.85154e-06
5.85178e-06
5.85202e-06
5.85226e-06
5.8525e-06
5.85274e-06
5.85298e-06
5.85322e-06
5.85346e-06
5.8537e-06
5.85394e-06
5.85419e-06
5.85443e-06
5.85467e-06
5.85491e-06
5.85516e-06
5.8554e-06
5.85565e-06
5.8559e-06
5.85614e-06
5.85639e-06
5.85664e-06
5.85689e-06
5.85713e-06
5.85739e-06
5.85764e-06
5.85789e-06
5.85814e-06
5.85839e-06
5.85865e-06
5.8589e-06
5.85916e-06
5.85942e-06
5.85967e-06
5.85993e-06
5.86019e-06
5.86046e-06
5.86072e-06
5.86098e-06
5.86125e-06
5.86151e-06
5.86179e-06
5.84982e-06
5.85004e-06
5.85026e-06
5.85047e-06
5.85068e-06
5.8509e-06
5.85111e-06
5.85132e-06
5.85153e-06
5.85175e-06
5.85196e-06
5.85217e-06
5.85239e-06
5.8526e-06
5.85282e-06
5.85304e-06
5.85325e-06
5.85347e-06
5.85369e-06
5.8539e-06
5.85412e-06
5.85434e-06
5.85456e-06
5.85478e-06
5.85501e-06
5.85523e-06
5.85545e-06
5.85568e-06
5.8559e-06
5.85613e-06
5.85635e-06
5.85658e-06
5.85681e-06
5.85704e-06
5.85727e-06
5.8575e-06
5.85773e-06
5.85796e-06
5.8582e-06
5.85843e-06
5.85867e-06
5.85891e-06
5.85915e-06
5.85939e-06
5.84858e-06
5.84878e-06
5.84896e-06
5.84915e-06
5.84933e-06
5.84952e-06
5.84971e-06
5.84989e-06
5.85008e-06
5.85027e-06
5.85045e-06
5.85064e-06
5.85083e-06
5.85102e-06
5.8512e-06
5.85139e-06
5.85158e-06
5.85177e-06
5.85196e-06
5.85215e-06
5.85234e-06
5.85254e-06
5.85273e-06
5.85292e-06
5.85312e-06
5.85331e-06
5.85351e-06
5.8537e-06
5.8539e-06
5.8541e-06
5.85429e-06
5.85449e-06
5.85469e-06
5.85489e-06
5.85509e-06
5.8553e-06
5.8555e-06
5.8557e-06
5.85591e-06
5.85611e-06
5.85632e-06
5.85653e-06
5.85674e-06
5.85695e-06
5.84735e-06
5.84751e-06
5.84767e-06
5.84783e-06
5.84799e-06
5.84815e-06
5.84831e-06
5.84847e-06
5.84863e-06
5.84879e-06
5.84895e-06
5.84911e-06
5.84927e-06
5.84943e-06
5.84959e-06
5.84975e-06
5.84992e-06
5.85008e-06
5.85024e-06
5.85041e-06
5.85057e-06
5.85074e-06
5.8509e-06
5.85107e-06
5.85123e-06
5.8514e-06
5.85157e-06
5.85173e-06
5.8519e-06
5.85207e-06
5.85224e-06
5.85241e-06
5.85258e-06
5.85275e-06
5.85293e-06
5.8531e-06
5.85327e-06
5.85345e-06
5.85362e-06
5.8538e-06
5.85398e-06
5.85416e-06
5.85433e-06
5.85452e-06
5.84614e-06
5.84627e-06
5.84641e-06
5.84654e-06
5.84667e-06
5.84681e-06
5.84694e-06
5.84707e-06
5.84721e-06
5.84734e-06
5.84747e-06
5.84761e-06
5.84774e-06
5.84788e-06
5.84801e-06
5.84815e-06
5.84828e-06
5.84842e-06
5.84856e-06
5.84869e-06
5.84883e-06
5.84897e-06
5.84911e-06
5.84924e-06
5.84938e-06
5.84952e-06
5.84966e-06
5.8498e-06
5.84994e-06
5.85009e-06
5.85023e-06
5.85037e-06
5.85051e-06
5.85066e-06
5.8508e-06
5.85095e-06
5.85109e-06
5.85124e-06
5.85139e-06
5.85154e-06
5.85168e-06
5.85183e-06
5.85198e-06
5.85214e-06
5.84492e-06
5.84503e-06
5.84513e-06
5.84524e-06
5.84535e-06
5.84545e-06
5.84556e-06
5.84567e-06
5.84577e-06
5.84588e-06
5.84599e-06
5.8461e-06
5.84621e-06
5.84631e-06
5.84642e-06
5.84653e-06
5.84664e-06
5.84675e-06
5.84686e-06
5.84697e-06
5.84708e-06
5.84719e-06
5.8473e-06
5.84741e-06
5.84752e-06
5.84764e-06
5.84775e-06
5.84786e-06
5.84797e-06
5.84809e-06
5.8482e-06
5.84832e-06
5.84843e-06
5.84854e-06
5.84866e-06
5.84878e-06
5.8489e-06
5.84902e-06
5.84915e-06
5.84927e-06
5.84939e-06
5.84951e-06
5.84963e-06
5.84975e-06
5.84371e-06
5.84379e-06
5.84387e-06
5.84395e-06
5.84404e-06
5.84412e-06
5.8442e-06
5.84428e-06
5.84436e-06
5.84444e-06
5.84452e-06
5.84461e-06
5.84469e-06
5.84477e-06
5.84485e-06
5.84493e-06
5.84502e-06
5.8451e-06
5.84519e-06
5.84527e-06
5.84536e-06
5.84545e-06
5.84554e-06
5.84564e-06
5.84573e-06
5.84583e-06
5.84593e-06
5.84604e-06
5.84614e-06
5.84625e-06
5.84637e-06
5.84649e-06
5.84661e-06
5.84674e-06
5.84686e-06
5.84698e-06
5.8471e-06
5.84721e-06
5.84732e-06
5.84742e-06
5.84751e-06
5.84761e-06
5.8477e-06
5.84779e-06
5.84238e-06
5.84244e-06
5.84249e-06
5.84254e-06
5.84259e-06
5.84264e-06
5.8427e-06
5.84275e-06
5.8428e-06
5.84285e-06
5.84291e-06
5.84296e-06
5.84301e-06
5.84306e-06
5.84312e-06
5.84317e-06
5.84323e-06
5.84328e-06
5.84334e-06
5.84339e-06
5.84345e-06
5.8435e-06
5.84356e-06
5.84362e-06
5.84369e-06
5.84375e-06
5.84382e-06
5.84389e-06
5.84396e-06
5.84404e-06
5.84412e-06
5.8442e-06
5.84429e-06
5.84438e-06
5.84447e-06
5.84456e-06
5.84465e-06
5.84474e-06
5.84482e-06
5.8449e-06
5.84497e-06
5.84504e-06
5.8451e-06
5.84516e-06
5.84059e-06
5.84061e-06
5.84064e-06
5.84066e-06
5.84068e-06
5.8407e-06
5.84072e-06
5.84073e-06
5.84075e-06
5.84076e-06
5.84077e-06
5.84077e-06
5.84078e-06
5.84078e-06
5.84078e-06
5.84078e-06
5.84079e-06
5.8408e-06
5.84081e-06
5.84082e-06
5.84084e-06
5.84086e-06
5.84088e-06
5.8409e-06
5.84092e-06
5.84095e-06
5.84098e-06
5.84101e-06
5.84104e-06
5.84107e-06
5.84111e-06
5.84115e-06
5.84118e-06
5.84122e-06
5.84125e-06
5.84127e-06
5.8413e-06
5.84132e-06
5.84134e-06
5.84136e-06
5.84137e-06
5.84139e-06
5.8414e-06
5.84141e-06
5.87252e-06
5.87499e-06
5.87694e-06
5.87846e-06
5.88004e-06
5.88177e-06
5.88359e-06
5.88545e-06
5.88732e-06
5.88921e-06
5.89105e-06
5.89293e-06
5.89484e-06
5.89675e-06
5.89865e-06
5.90054e-06
5.90243e-06
5.90432e-06
5.90622e-06
5.90813e-06
5.91003e-06
5.91194e-06
5.91384e-06
5.91581e-06
5.91744e-06
5.92056e-06
5.87231e-06
5.87416e-06
5.87592e-06
5.87742e-06
5.87864e-06
5.8799e-06
5.88123e-06
5.8826e-06
5.88398e-06
5.88536e-06
5.88675e-06
5.88808e-06
5.88918e-06
5.89034e-06
5.89157e-06
5.89287e-06
5.89424e-06
5.89562e-06
5.89701e-06
5.8984e-06
5.89979e-06
5.90119e-06
5.90257e-06
5.90401e-06
5.90519e-06
5.90745e-06
5.87213e-06
5.87332e-06
5.87499e-06
5.8765e-06
5.87772e-06
5.8788e-06
5.87996e-06
5.88122e-06
5.88251e-06
5.88381e-06
5.88513e-06
5.88644e-06
5.88774e-06
5.88895e-06
5.89021e-06
5.89152e-06
5.89284e-06
5.89416e-06
5.89549e-06
5.89682e-06
5.89815e-06
5.89948e-06
5.9008e-06
5.90217e-06
5.9033e-06
5.90549e-06
5.87077e-06
5.87227e-06
5.87372e-06
5.87528e-06
5.87681e-06
5.87819e-06
5.87951e-06
5.88079e-06
5.88216e-06
5.88357e-06
5.885e-06
5.88644e-06
5.88788e-06
5.88932e-06
5.89076e-06
5.8922e-06
5.89365e-06
5.8951e-06
5.89655e-06
5.898e-06
5.89945e-06
5.90091e-06
5.90234e-06
5.90386e-06
5.90508e-06
5.90743e-06
5.86928e-06
5.87064e-06
5.87183e-06
5.8733e-06
5.8748e-06
5.87616e-06
5.87739e-06
5.87857e-06
5.87977e-06
5.88103e-06
5.88232e-06
5.88361e-06
5.8849e-06
5.88619e-06
5.88749e-06
5.88879e-06
5.89009e-06
5.89139e-06
5.89269e-06
5.894e-06
5.8953e-06
5.89661e-06
5.8979e-06
5.89925e-06
5.90036e-06
5.9025e-06
5.86707e-06
5.86835e-06
5.86963e-06
5.87087e-06
5.87218e-06
5.87351e-06
5.87479e-06
5.87599e-06
5.87716e-06
5.87833e-06
5.87951e-06
5.88072e-06
5.88197e-06
5.88323e-06
5.88449e-06
5.88576e-06
5.88703e-06
5.8883e-06
5.88957e-06
5.89084e-06
5.89212e-06
5.89339e-06
5.89464e-06
5.89593e-06
5.89699e-06
5.89905e-06
5.86488e-06
5.86603e-06
5.86717e-06
5.8683e-06
5.86941e-06
5.87057e-06
5.87174e-06
5.87287e-06
5.87395e-06
5.875e-06
5.87607e-06
5.87717e-06
5.8783e-06
5.87942e-06
5.88056e-06
5.88169e-06
5.88282e-06
5.88396e-06
5.88509e-06
5.88623e-06
5.88737e-06
5.88851e-06
5.88964e-06
5.89081e-06
5.89178e-06
5.89364e-06
5.86246e-06
5.86352e-06
5.86457e-06
5.86562e-06
5.86666e-06
5.8677e-06
5.86875e-06
5.8698e-06
5.87084e-06
5.87186e-06
5.87285e-06
5.87382e-06
5.87481e-06
5.8758e-06
5.8768e-06
5.87781e-06
5.87884e-06
5.87986e-06
5.88089e-06
5.88191e-06
5.88293e-06
5.88395e-06
5.88497e-06
5.88602e-06
5.88689e-06
5.88859e-06
5.85998e-06
5.86091e-06
5.86184e-06
5.86276e-06
5.86367e-06
5.86459e-06
5.8655e-06
5.86641e-06
5.86733e-06
5.86825e-06
5.86915e-06
5.87002e-06
5.8709e-06
5.87178e-06
5.87267e-06
5.87358e-06
5.8745e-06
5.87542e-06
5.87634e-06
5.87726e-06
5.87818e-06
5.8791e-06
5.88002e-06
5.88097e-06
5.88174e-06
5.88323e-06
5.85747e-06
5.85829e-06
5.85911e-06
5.85993e-06
5.86074e-06
5.86155e-06
5.86236e-06
5.86317e-06
5.86398e-06
5.86479e-06
5.8656e-06
5.86641e-06
5.86723e-06
5.86804e-06
5.86884e-06
5.86962e-06
5.8704e-06
5.87117e-06
5.87195e-06
5.87273e-06
5.87351e-06
5.87429e-06
5.87507e-06
5.87588e-06
5.87656e-06
5.87787e-06
5.85496e-06
5.85566e-06
5.85636e-06
5.85705e-06
5.85774e-06
5.85844e-06
5.85913e-06
5.85982e-06
5.86051e-06
5.8612e-06
5.86189e-06
5.86258e-06
5.86327e-06
5.86396e-06
5.86465e-06
5.86534e-06
5.86602e-06
5.86669e-06
5.86735e-06
5.86802e-06
5.86869e-06
5.86937e-06
5.87004e-06
5.87074e-06
5.87132e-06
5.87245e-06
5.85251e-06
5.8531e-06
5.85368e-06
5.85427e-06
5.85485e-06
5.85543e-06
5.85602e-06
5.8566e-06
5.85718e-06
5.85776e-06
5.85834e-06
5.85893e-06
5.85951e-06
5.86009e-06
5.86067e-06
5.86126e-06
5.86184e-06
5.86242e-06
5.86301e-06
5.86358e-06
5.86415e-06
5.86472e-06
5.86527e-06
5.86586e-06
5.86634e-06
5.86728e-06
5.85004e-06
5.85052e-06
5.85099e-06
5.85145e-06
5.85192e-06
5.85239e-06
5.85286e-06
5.85332e-06
5.85379e-06
5.85426e-06
5.85472e-06
5.85519e-06
5.85565e-06
5.85612e-06
5.85659e-06
5.85706e-06
5.85752e-06
5.85799e-06
5.85846e-06
5.85892e-06
5.85938e-06
5.85984e-06
5.8603e-06
5.86078e-06
5.86117e-06
5.86193e-06
5.84801e-06
5.84837e-06
5.84873e-06
5.84909e-06
5.84944e-06
5.8498e-06
5.85016e-06
5.85051e-06
5.85087e-06
5.85123e-06
5.85158e-06
5.85194e-06
5.8523e-06
5.85265e-06
5.85301e-06
5.85336e-06
5.85372e-06
5.85408e-06
5.85443e-06
5.85478e-06
5.85513e-06
5.85547e-06
5.85582e-06
5.85618e-06
5.85648e-06
5.85706e-06
5.84531e-06
5.84554e-06
5.84578e-06
5.84601e-06
5.84625e-06
5.84648e-06
5.84672e-06
5.84695e-06
5.84718e-06
5.84742e-06
5.84765e-06
5.84788e-06
5.84812e-06
5.84835e-06
5.84858e-06
5.84882e-06
5.84905e-06
5.84928e-06
5.84951e-06
5.84975e-06
5.84998e-06
5.85021e-06
5.85044e-06
5.85068e-06
5.85087e-06
5.85125e-06
5.84141e-06
5.84148e-06
5.84156e-06
5.84165e-06
5.84174e-06
5.84183e-06
5.84193e-06
5.84203e-06
5.84215e-06
5.84226e-06
5.84238e-06
5.8425e-06
5.84262e-06
5.84273e-06
5.84284e-06
5.84295e-06
5.84305e-06
5.84315e-06
5.84325e-06
5.84335e-06
5.84344e-06
5.84354e-06
5.84363e-06
5.84372e-06
5.84383e-06
5.84386e-06
5.84072e-06
5.84217e-06
5.84362e-06
5.84507e-06
5.84653e-06
5.84798e-06
5.84942e-06
5.85087e-06
5.85229e-06
5.85372e-06
5.84075e-06
5.84225e-06
5.84376e-06
5.84527e-06
5.84678e-06
5.84829e-06
5.8498e-06
5.85128e-06
5.85284e-06
5.85418e-06
5.84075e-06
5.84226e-06
5.84377e-06
5.84529e-06
5.8468e-06
5.84831e-06
5.84983e-06
5.85134e-06
5.85286e-06
5.85436e-06
5.84073e-06
5.8422e-06
5.84368e-06
5.84515e-06
5.84663e-06
5.8481e-06
5.84958e-06
5.85106e-06
5.85254e-06
5.85403e-06
5.8407e-06
5.8421e-06
5.8435e-06
5.8449e-06
5.84631e-06
5.84772e-06
5.84912e-06
5.85054e-06
5.85194e-06
5.85338e-06
5.84065e-06
5.84196e-06
5.84327e-06
5.84458e-06
5.84589e-06
5.8472e-06
5.84852e-06
5.84984e-06
5.85115e-06
5.85249e-06
5.8406e-06
5.8418e-06
5.843e-06
5.8442e-06
5.8454e-06
5.84661e-06
5.84781e-06
5.84903e-06
5.85023e-06
5.85147e-06
5.84054e-06
5.84162e-06
5.84271e-06
5.84379e-06
5.84488e-06
5.84597e-06
5.84706e-06
5.84815e-06
5.84924e-06
5.85036e-06
5.84048e-06
5.84144e-06
5.84241e-06
5.84337e-06
5.84434e-06
5.8453e-06
5.84627e-06
5.84725e-06
5.84821e-06
5.84921e-06
5.84042e-06
5.84126e-06
5.8421e-06
5.84295e-06
5.84379e-06
5.84464e-06
5.84548e-06
5.84633e-06
5.84717e-06
5.84804e-06
5.84036e-06
5.84108e-06
5.8418e-06
5.84252e-06
5.84325e-06
5.84397e-06
5.84469e-06
5.84542e-06
5.84614e-06
5.84689e-06
5.8403e-06
5.8409e-06
5.8415e-06
5.84211e-06
5.84271e-06
5.84331e-06
5.84392e-06
5.84453e-06
5.84513e-06
5.84575e-06
5.84024e-06
5.84072e-06
5.84121e-06
5.84169e-06
5.84217e-06
5.84266e-06
5.84314e-06
5.84363e-06
5.84412e-06
5.84461e-06
5.84018e-06
5.84054e-06
5.84091e-06
5.84127e-06
5.84163e-06
5.842e-06
5.84236e-06
5.84273e-06
5.84309e-06
5.84347e-06
5.84011e-06
5.84035e-06
5.84058e-06
5.84082e-06
5.84105e-06
5.84129e-06
5.84152e-06
5.84176e-06
5.842e-06
5.84224e-06
5.84004e-06
5.84012e-06
5.8402e-06
5.84029e-06
5.84036e-06
5.84043e-06
5.84048e-06
5.84051e-06
5.84054e-06
5.84056e-06
5.85464e-06
5.85493e-06
5.85518e-06
5.85544e-06
5.8557e-06
5.85595e-06
5.8562e-06
5.85645e-06
5.8567e-06
5.85694e-06
5.85719e-06
5.85744e-06
5.85769e-06
5.85795e-06
5.85821e-06
5.85848e-06
5.85877e-06
5.85907e-06
5.8594e-06
5.85976e-06
5.86015e-06
5.86058e-06
5.8611e-06
5.86166e-06
5.86249e-06
5.86342e-06
5.86416e-06
5.8646e-06
5.8649e-06
5.86515e-06
5.86538e-06
5.86562e-06
5.86585e-06
5.86609e-06
5.86633e-06
5.86657e-06
5.86682e-06
5.86709e-06
5.86732e-06
5.86767e-06
5.86821e-06
5.86887e-06
5.86967e-06
5.87047e-06
5.85519e-06
5.8556e-06
5.85604e-06
5.8564e-06
5.85675e-06
5.85709e-06
5.85743e-06
5.85777e-06
5.8581e-06
5.85844e-06
5.85878e-06
5.85911e-06
5.85943e-06
5.85975e-06
5.86007e-06
5.86038e-06
5.86069e-06
5.86099e-06
5.86129e-06
5.86158e-06
5.86188e-06
5.86217e-06
5.86246e-06
5.86278e-06
5.86302e-06
5.86344e-06
5.86386e-06
5.86422e-06
5.86454e-06
5.86486e-06
5.86517e-06
5.86549e-06
5.8658e-06
5.8661e-06
5.86641e-06
5.86671e-06
5.86702e-06
5.8673e-06
5.86761e-06
5.86804e-06
5.86859e-06
5.86926e-06
5.86998e-06
5.87084e-06
5.85534e-06
5.8557e-06
5.85605e-06
5.85639e-06
5.85673e-06
5.85707e-06
5.8574e-06
5.85773e-06
5.85807e-06
5.8584e-06
5.85873e-06
5.85906e-06
5.85939e-06
5.85972e-06
5.86005e-06
5.86039e-06
5.86072e-06
5.86105e-06
5.86138e-06
5.86172e-06
5.86205e-06
5.8624e-06
5.86279e-06
5.86323e-06
5.86377e-06
5.86446e-06
5.86511e-06
5.86573e-06
5.86617e-06
5.86653e-06
5.86686e-06
5.86719e-06
5.8675e-06
5.86782e-06
5.86814e-06
5.86846e-06
5.86877e-06
5.86909e-06
5.86941e-06
5.86971e-06
5.87005e-06
5.8703e-06
5.87074e-06
5.87115e-06
5.85497e-06
5.85531e-06
5.85564e-06
5.85597e-06
5.8563e-06
5.85663e-06
5.85696e-06
5.85729e-06
5.85762e-06
5.85795e-06
5.85828e-06
5.85861e-06
5.85894e-06
5.85928e-06
5.85961e-06
5.85994e-06
5.86027e-06
5.8606e-06
5.86092e-06
5.86125e-06
5.86158e-06
5.86191e-06
5.86224e-06
5.86257e-06
5.8629e-06
5.86323e-06
5.86365e-06
5.86403e-06
5.86438e-06
5.86472e-06
5.86507e-06
5.86541e-06
5.86575e-06
5.86609e-06
5.86643e-06
5.86677e-06
5.86711e-06
5.86745e-06
5.8678e-06
5.86814e-06
5.86848e-06
5.86883e-06
5.86922e-06
5.86975e-06
5.85429e-06
5.85462e-06
5.85493e-06
5.85524e-06
5.85555e-06
5.85587e-06
5.85618e-06
5.85649e-06
5.8568e-06
5.85711e-06
5.85742e-06
5.85773e-06
5.85804e-06
5.85835e-06
5.85867e-06
5.85898e-06
5.85929e-06
5.8596e-06
5.85992e-06
5.86023e-06
5.86055e-06
5.86086e-06
5.86118e-06
5.8615e-06
5.86181e-06
5.86213e-06
5.86252e-06
5.86295e-06
5.86343e-06
5.86382e-06
5.86417e-06
5.86449e-06
5.86482e-06
5.86514e-06
5.86546e-06
5.86579e-06
5.86611e-06
5.86644e-06
5.86677e-06
5.8671e-06
5.86743e-06
5.86776e-06
5.86808e-06
5.86843e-06
5.85334e-06
5.85364e-06
5.85393e-06
5.85422e-06
5.85451e-06
5.8548e-06
5.85509e-06
5.85538e-06
5.85567e-06
5.85597e-06
5.85626e-06
5.85655e-06
5.85684e-06
5.85714e-06
5.85743e-06
5.85772e-06
5.85802e-06
5.85831e-06
5.85861e-06
5.8589e-06
5.8592e-06
5.8595e-06
5.85979e-06
5.86009e-06
5.86039e-06
5.86069e-06
5.86098e-06
5.86129e-06
5.86159e-06
5.86189e-06
5.8622e-06
5.8625e-06
5.86281e-06
5.86311e-06
5.86342e-06
5.86373e-06
5.86404e-06
5.86435e-06
5.86466e-06
5.86498e-06
5.86529e-06
5.86561e-06
5.86592e-06
5.86625e-06
5.85225e-06
5.85252e-06
5.85279e-06
5.85305e-06
5.85332e-06
5.85358e-06
5.85385e-06
5.85412e-06
5.85438e-06
5.85465e-06
5.85491e-06
5.85518e-06
5.85545e-06
5.85571e-06
5.85598e-06
5.85625e-06
5.85652e-06
5.85679e-06
5.85706e-06
5.85733e-06
5.8576e-06
5.85788e-06
5.85815e-06
5.85843e-06
5.8587e-06
5.85898e-06
5.85925e-06
5.85953e-06
5.85981e-06
5.86008e-06
5.86038e-06
5.86067e-06
5.86096e-06
5.86124e-06
5.86153e-06
5.86181e-06
5.8621e-06
5.86239e-06
5.86268e-06
5.86297e-06
5.86326e-06
5.86355e-06
5.86385e-06
5.86415e-06
5.85105e-06
5.8513e-06
5.85154e-06
5.85178e-06
5.85202e-06
5.85226e-06
5.8525e-06
5.85274e-06
5.85298e-06
5.85322e-06
5.85346e-06
5.8537e-06
5.85394e-06
5.85419e-06
5.85443e-06
5.85467e-06
5.85492e-06
5.85516e-06
5.85541e-06
5.85565e-06
5.8559e-06
5.85615e-06
5.85639e-06
5.85664e-06
5.85689e-06
5.85714e-06
5.85739e-06
5.85764e-06
5.85789e-06
5.85814e-06
5.8584e-06
5.85865e-06
5.85891e-06
5.85916e-06
5.85942e-06
5.85968e-06
5.85994e-06
5.8602e-06
5.86046e-06
5.86072e-06
5.86099e-06
5.86125e-06
5.86152e-06
5.86179e-06
5.84982e-06
5.85004e-06
5.85026e-06
5.85047e-06
5.85068e-06
5.8509e-06
5.85111e-06
5.85132e-06
5.85153e-06
5.85175e-06
5.85196e-06
5.85218e-06
5.85239e-06
5.85261e-06
5.85282e-06
5.85304e-06
5.85325e-06
5.85347e-06
5.85369e-06
5.85391e-06
5.85413e-06
5.85435e-06
5.85457e-06
5.85479e-06
5.85501e-06
5.85523e-06
5.85545e-06
5.85568e-06
5.8559e-06
5.85613e-06
5.85636e-06
5.85658e-06
5.85681e-06
5.85704e-06
5.85727e-06
5.8575e-06
5.85774e-06
5.85797e-06
5.8582e-06
5.85844e-06
5.85868e-06
5.85891e-06
5.85915e-06
5.8594e-06
5.84858e-06
5.84878e-06
5.84896e-06
5.84915e-06
5.84934e-06
5.84952e-06
5.84971e-06
5.84989e-06
5.85008e-06
5.85027e-06
5.85045e-06
5.85064e-06
5.85083e-06
5.85102e-06
5.85121e-06
5.85139e-06
5.85158e-06
5.85177e-06
5.85196e-06
5.85216e-06
5.85235e-06
5.85254e-06
5.85273e-06
5.85293e-06
5.85312e-06
5.85331e-06
5.85351e-06
5.8537e-06
5.8539e-06
5.8541e-06
5.8543e-06
5.8545e-06
5.8547e-06
5.8549e-06
5.8551e-06
5.8553e-06
5.8555e-06
5.85571e-06
5.85591e-06
5.85612e-06
5.85632e-06
5.85653e-06
5.85674e-06
5.85696e-06
5.84735e-06
5.84751e-06
5.84767e-06
5.84783e-06
5.84799e-06
5.84815e-06
5.84831e-06
5.84847e-06
5.84863e-06
5.84879e-06
5.84895e-06
5.84911e-06
5.84927e-06
5.84943e-06
5.84959e-06
5.84976e-06
5.84992e-06
5.85008e-06
5.85024e-06
5.85041e-06
5.85057e-06
5.85074e-06
5.8509e-06
5.85107e-06
5.85124e-06
5.8514e-06
5.85157e-06
5.85174e-06
5.85191e-06
5.85207e-06
5.85224e-06
5.85241e-06
5.85259e-06
5.85276e-06
5.85293e-06
5.8531e-06
5.85328e-06
5.85345e-06
5.85363e-06
5.8538e-06
5.85398e-06
5.85416e-06
5.85434e-06
5.85452e-06
5.84614e-06
5.84627e-06
5.84641e-06
5.84654e-06
5.84667e-06
5.84681e-06
5.84694e-06
5.84707e-06
5.84721e-06
5.84734e-06
5.84748e-06
5.84761e-06
5.84774e-06
5.84788e-06
5.84801e-06
5.84815e-06
5.84829e-06
5.84842e-06
5.84856e-06
5.84869e-06
5.84883e-06
5.84897e-06
5.84911e-06
5.84925e-06
5.84939e-06
5.84953e-06
5.84967e-06
5.84981e-06
5.84995e-06
5.85009e-06
5.85023e-06
5.85037e-06
5.85052e-06
5.85066e-06
5.85081e-06
5.85095e-06
5.8511e-06
5.85124e-06
5.85139e-06
5.85154e-06
5.85169e-06
5.85184e-06
5.85199e-06
5.85214e-06
5.84492e-06
5.84503e-06
5.84513e-06
5.84524e-06
5.84535e-06
5.84545e-06
5.84556e-06
5.84567e-06
5.84578e-06
5.84588e-06
5.84599e-06
5.8461e-06
5.84621e-06
5.84632e-06
5.84642e-06
5.84653e-06
5.84664e-06
5.84675e-06
5.84686e-06
5.84697e-06
5.84708e-06
5.84719e-06
5.8473e-06
5.84741e-06
5.84753e-06
5.84764e-06
5.84775e-06
5.84786e-06
5.84798e-06
5.84809e-06
5.8482e-06
5.84832e-06
5.84843e-06
5.84855e-06
5.84866e-06
5.84878e-06
5.8489e-06
5.84903e-06
5.84915e-06
5.84927e-06
5.84939e-06
5.84951e-06
5.84963e-06
5.84975e-06
5.84371e-06
5.84379e-06
5.84387e-06
5.84395e-06
5.84404e-06
5.84412e-06
5.8442e-06
5.84428e-06
5.84436e-06
5.84444e-06
5.84452e-06
5.84461e-06
5.84469e-06
5.84477e-06
5.84485e-06
5.84493e-06
5.84502e-06
5.8451e-06
5.84519e-06
5.84528e-06
5.84536e-06
5.84545e-06
5.84554e-06
5.84564e-06
5.84573e-06
5.84583e-06
5.84593e-06
5.84604e-06
5.84614e-06
5.84626e-06
5.84637e-06
5.84649e-06
5.84662e-06
5.84674e-06
5.84687e-06
5.84699e-06
5.8471e-06
5.84722e-06
5.84733e-06
5.84742e-06
5.84752e-06
5.84761e-06
5.8477e-06
5.84779e-06
5.84238e-06
5.84244e-06
5.84249e-06
5.84254e-06
5.84259e-06
5.84264e-06
5.8427e-06
5.84275e-06
5.8428e-06
5.84285e-06
5.84291e-06
5.84296e-06
5.84301e-06
5.84307e-06
5.84312e-06
5.84317e-06
5.84323e-06
5.84328e-06
5.84334e-06
5.84339e-06
5.84345e-06
5.8435e-06
5.84356e-06
5.84362e-06
5.84369e-06
5.84375e-06
5.84382e-06
5.84389e-06
5.84396e-06
5.84404e-06
5.84412e-06
5.8442e-06
5.84429e-06
5.84438e-06
5.84447e-06
5.84456e-06
5.84465e-06
5.84474e-06
5.84482e-06
5.8449e-06
5.84497e-06
5.84504e-06
5.8451e-06
5.84516e-06
5.84059e-06
5.84061e-06
5.84064e-06
5.84066e-06
5.84068e-06
5.8407e-06
5.84072e-06
5.84073e-06
5.84075e-06
5.84076e-06
5.84077e-06
5.84077e-06
5.84078e-06
5.84078e-06
5.84078e-06
5.84078e-06
5.84079e-06
5.8408e-06
5.84081e-06
5.84082e-06
5.84084e-06
5.84086e-06
5.84088e-06
5.8409e-06
5.84092e-06
5.84095e-06
5.84098e-06
5.84101e-06
5.84104e-06
5.84107e-06
5.84111e-06
5.84115e-06
5.84118e-06
5.84122e-06
5.84125e-06
5.84127e-06
5.8413e-06
5.84132e-06
5.84134e-06
5.84136e-06
5.84137e-06
5.84139e-06
5.8414e-06
5.84141e-06
5.87254e-06
5.87501e-06
5.87696e-06
5.87848e-06
5.88006e-06
5.8818e-06
5.88361e-06
5.88547e-06
5.88734e-06
5.88924e-06
5.89108e-06
5.89296e-06
5.89487e-06
5.89677e-06
5.89867e-06
5.90056e-06
5.90245e-06
5.90435e-06
5.90625e-06
5.90815e-06
5.91005e-06
5.91196e-06
5.91386e-06
5.91583e-06
5.91746e-06
5.92057e-06
5.87232e-06
5.87417e-06
5.87593e-06
5.87743e-06
5.87865e-06
5.87991e-06
5.88125e-06
5.88261e-06
5.88399e-06
5.88537e-06
5.88677e-06
5.8881e-06
5.88919e-06
5.89036e-06
5.89159e-06
5.8929e-06
5.89426e-06
5.89565e-06
5.89704e-06
5.89843e-06
5.89982e-06
5.90121e-06
5.9026e-06
5.90403e-06
5.90522e-06
5.90748e-06
5.87214e-06
5.87333e-06
5.875e-06
5.87651e-06
5.87773e-06
5.87882e-06
5.87998e-06
5.88123e-06
5.88252e-06
5.88383e-06
5.88514e-06
5.88646e-06
5.88776e-06
5.88897e-06
5.89024e-06
5.89154e-06
5.89287e-06
5.89419e-06
5.89552e-06
5.89684e-06
5.89817e-06
5.8995e-06
5.90082e-06
5.9022e-06
5.90333e-06
5.90551e-06
5.87077e-06
5.87228e-06
5.87373e-06
5.87529e-06
5.87682e-06
5.8782e-06
5.87953e-06
5.8808e-06
5.88217e-06
5.88358e-06
5.88501e-06
5.88645e-06
5.8879e-06
5.88933e-06
5.89077e-06
5.89222e-06
5.89367e-06
5.89512e-06
5.89657e-06
5.89802e-06
5.89947e-06
5.90092e-06
5.90236e-06
5.90387e-06
5.90509e-06
5.90744e-06
5.86929e-06
5.87065e-06
5.87184e-06
5.87331e-06
5.87481e-06
5.87617e-06
5.8774e-06
5.87858e-06
5.87979e-06
5.88105e-06
5.88233e-06
5.88362e-06
5.88491e-06
5.88621e-06
5.88751e-06
5.88881e-06
5.89011e-06
5.89141e-06
5.89271e-06
5.89401e-06
5.89532e-06
5.89662e-06
5.89792e-06
5.89927e-06
5.90038e-06
5.90251e-06
5.86707e-06
5.86836e-06
5.86964e-06
5.87087e-06
5.87219e-06
5.87352e-06
5.8748e-06
5.876e-06
5.87717e-06
5.87834e-06
5.87952e-06
5.88074e-06
5.88198e-06
5.88324e-06
5.88451e-06
5.88577e-06
5.88704e-06
5.88831e-06
5.88958e-06
5.89086e-06
5.89213e-06
5.8934e-06
5.89465e-06
5.89594e-06
5.897e-06
5.89906e-06
5.86489e-06
5.86604e-06
5.86717e-06
5.8683e-06
5.86942e-06
5.87057e-06
5.87175e-06
5.87288e-06
5.87396e-06
5.87502e-06
5.87608e-06
5.87719e-06
5.87831e-06
5.87944e-06
5.88057e-06
5.8817e-06
5.88284e-06
5.88397e-06
5.88511e-06
5.88624e-06
5.88738e-06
5.88852e-06
5.88965e-06
5.89083e-06
5.8918e-06
5.89365e-06
5.86246e-06
5.86352e-06
5.86458e-06
5.86562e-06
5.86666e-06
5.86771e-06
5.86876e-06
5.86981e-06
5.87085e-06
5.87187e-06
5.87286e-06
5.87383e-06
5.87482e-06
5.87581e-06
5.87681e-06
5.87782e-06
5.87885e-06
5.87987e-06
5.88089e-06
5.88192e-06
5.88294e-06
5.88396e-06
5.88497e-06
5.88603e-06
5.8869e-06
5.8886e-06
5.85999e-06
5.86092e-06
5.86184e-06
5.86276e-06
5.86368e-06
5.86459e-06
5.86551e-06
5.86642e-06
5.86734e-06
5.86825e-06
5.86915e-06
5.87003e-06
5.87091e-06
5.87179e-06
5.87268e-06
5.87359e-06
5.87451e-06
5.87543e-06
5.87635e-06
5.87727e-06
5.87819e-06
5.87911e-06
5.88002e-06
5.88097e-06
5.88175e-06
5.88324e-06
5.85747e-06
5.8583e-06
5.85911e-06
5.85993e-06
5.86074e-06
5.86155e-06
5.86237e-06
5.86318e-06
5.86399e-06
5.8648e-06
5.86561e-06
5.86642e-06
5.86723e-06
5.86805e-06
5.86885e-06
5.86963e-06
5.8704e-06
5.87118e-06
5.87196e-06
5.87273e-06
5.87351e-06
5.8743e-06
5.87507e-06
5.87589e-06
5.87656e-06
5.87788e-06
5.85496e-06
5.85566e-06
5.85636e-06
5.85706e-06
5.85775e-06
5.85844e-06
5.85913e-06
5.85982e-06
5.86051e-06
5.8612e-06
5.86189e-06
5.86258e-06
5.86328e-06
5.86397e-06
5.86466e-06
5.86535e-06
5.86602e-06
5.86669e-06
5.86736e-06
5.86803e-06
5.8687e-06
5.86938e-06
5.87005e-06
5.87075e-06
5.87133e-06
5.87245e-06
5.85251e-06
5.8531e-06
5.85369e-06
5.85427e-06
5.85485e-06
5.85544e-06
5.85602e-06
5.8566e-06
5.85719e-06
5.85777e-06
5.85835e-06
5.85893e-06
5.85951e-06
5.86009e-06
5.86068e-06
5.86126e-06
5.86184e-06
5.86243e-06