/*--------------------------------*- C++ -*----------------------------------*\
| =========                 |                                                 |
| \\      /  F ield         | OpenFOAM: The Open Source CFD Toolbox           |
|  \\    /   O peration     | Version:  2412                                  |
|   \\  /    A nd           | Website:  www.openfoam.com                      |
|    \\/     M anipulation  |                                                 |
\*---------------------------------------------------------------------------*/
FoamFile
{
    version     2.0;
    format      ascii;
    arch        "LSB;label=32;scalar=64";
    class       volScalarField;
    location    "1500";
    object      p;
}
// * * * * * * * * * * * * * * * * * * * * * * * * * * * * * * * * * * * * * //

dimensions      [0 2 -2 0 0 0 0];

internalField   nonuniform List<scalar> 
8896
(
0.542628
0.544763
0.550111
0.557843
0.56652
0.574348
0.578261
0.573476
0.551524
0.503963
0.498306
0.498919
0.500413
0.502022
0.502276
0.499116
0.489302
0.468341
0.427837
0.358888
0.453207
0.45262
0.451046
0.447811
0.44162
0.430478
0.411437
0.38073
0.332569
0.263264
0.408724
0.407269
0.403303
0.396372
0.385479
0.368876
0.344083
0.308208
0.256845
0.18687
0.365969
0.363883
0.35819
0.348653
0.334611
0.314631
0.286749
0.248854
0.198145
0.133527
0.325724
0.323211
0.316364
0.305134
0.289175
0.26739
0.238287
0.200428
0.151953
0.0922218
0.288517
0.285746
0.278201
0.265991
0.249047
0.226578
0.197505
0.160904
0.115746
0.0621519
0.254675
0.251772
0.243868
0.231204
0.213937
0.19154
0.163268
0.128586
0.086952
0.0386462
0.224368
0.221419
0.213396
0.200636
0.183479
0.161616
0.13456
0.102061
0.0639709
0.0208533
0.197658
0.194718
0.186722
0.174085
0.157289
0.136198
0.110523
0.0802154
0.0453361
0.00642629
0.174541
0.171635
0.163736
0.151322
0.134991
0.114743
0.0904374
0.0621665
0.0301963
-0.00476179
0.154977
0.152107
0.144308
0.132128
0.116258
0.0967941
0.0736957
0.047155
0.0174802
-0.0148102
0.138927
0.136069
0.128294
0.116274
0.100806
0.0820472
0.0600196
0.0349704
0.00738753
-0.0218943
0.126385
0.123492
0.115609
0.103546
0.0881871
0.0697495
0.0483077
0.0241517
-0.00236961
-0.0309129
0.117427
0.114253
0.10624
0.094325
0.0792652
0.0612746
0.0404777
0.017166
-0.00805524
-0.0341985
0.112496
0.107957
0.0987297
0.0860313
0.0704357
0.0520912
0.0311162
0.00777118
-0.0177644
-0.0453406
0.453956
0.419422
0.381997
0.344621
0.303887
0.257906
0.206882
0.151244
0.091023
0.0262028
-0.0430112
-0.116247
-0.193036
-0.272817
-0.354911
-0.438533
-0.522804
-0.606781
-0.689483
-0.769923
-0.847138
-0.920222
-0.988359
-1.05085
-1.10711
-1.15674
-1.19948
-1.23428
-1.26091
-1.27998
-1.29186
-1.29668
-1.29464
-1.28614
-1.27164
-1.25165
-1.2267
-1.19739
-1.16428
-1.12816
-1.09003
-1.05054
-1.00987
-0.968464
0.280107
0.240836
0.20395
0.167625
0.128044
0.0861673
0.0423009
-0.0037982
-0.052199
-0.102733
-0.15517
-0.209286
-0.264828
-0.321466
-0.378806
-0.436422
-0.493863
-0.550659
-0.606327
-0.660378
-0.712332
-0.761721
-0.80816
-0.851241
-0.890632
-0.925751
-0.956951
-0.984412
-1.00799
-1.02682
-1.04094
-1.05065
-1.05605
-1.05722
-1.05428
-1.04739
-1.03675
-1.02257
-1.00503
-0.984359
-0.96038
-0.933221
-0.903172
-0.870859
0.201376
0.171599
0.142589
0.114125
0.0839085
0.051464
0.0172622
-0.0184339
-0.0556087
-0.0942219
-0.134136
-0.175152
-0.217039
-0.259552
-0.302437
-0.345416
-0.388195
-0.430467
-0.471918
-0.512233
-0.551104
-0.58824
-0.623358
-0.656219
-0.68657
-0.714324
-0.738955
-0.760801
-0.779657
-0.795279
-0.807646
-0.816852
-0.822975
-0.826088
-0.826295
-0.82374
-0.818598
-0.811048
-0.80132
-0.789465
-0.775507
-0.759673
-0.742463
-0.724009
0.124445
0.0966764
0.0703576
0.0446888
0.0177448
-0.0107158
-0.0401723
-0.0703519
-0.101236
-0.132788
-0.164885
-0.19737
-0.230099
-0.262934
-0.295728
-0.328314
-0.360515
-0.392153
-0.423051
-0.453031
-0.481924
-0.509557
-0.53571
-0.56017
-0.582761
-0.603242
-0.6216
-0.638293
-0.653264
-0.666512
-0.677451
-0.686075
-0.692556
-0.696958
-0.699282
-0.699556
-0.697841
-0.694207
-0.688728
-0.681471
-0.672524
-0.661911
-0.64986
-0.635821
0.0822203
0.0601214
0.0388721
0.0180766
-0.00349321
-0.0260118
-0.0491534
-0.0727431
-0.0967684
-0.121207
-0.145984
-0.171003
-0.19617
-0.221389
-0.246546
-0.271518
-0.296185
-0.320427
-0.344122
-0.367149
-0.389387
-0.410723
-0.431046
-0.450264
-0.468286
-0.485055
-0.500435
-0.514301
-0.526837
-0.537968
-0.547562
-0.555584
-0.562059
-0.567015
-0.570477
-0.572479
-0.573067
-0.572298
-0.570241
-0.566965
-0.562553
-0.55708
-0.550612
-0.542919
0.0455173
0.0261025
0.00754927
-0.0106274
-0.0293765
-0.0487823
-0.0685734
-0.0886101
-0.108874
-0.129339
-0.149937
-0.170589
-0.19122
-0.211754
-0.232115
-0.252226
-0.272013
-0.291395
-0.310292
-0.328628
-0.346324
-0.36331
-0.379516
-0.394877
-0.40933
-0.422829
-0.435269
-0.446494
-0.456546
-0.465504
-0.473586
-0.480675
-0.486561
-0.491246
-0.494795
-0.497233
-0.498567
-0.498815
-0.498005
-0.496168
-0.49334
-0.48955
-0.484855
-0.479177
0.0228329
0.006873
-0.00851697
-0.0236346
-0.0391004
-0.0549664
-0.0710488
-0.0872536
-0.103569
-0.119976
-0.136431
-0.152882
-0.169282
-0.185582
-0.201733
-0.217682
-0.233371
-0.248743
-0.263745
-0.278323
-0.292425
-0.306
-0.318999
-0.331379
-0.343096
-0.354112
-0.364394
-0.373918
-0.382668
-0.390629
-0.397784
-0.404106
-0.409586
-0.414226
-0.418036
-0.421026
-0.423209
-0.424604
-0.425234
-0.425128
-0.424319
-0.422832
-0.420725
-0.417907
0.00373912
-0.0101404
-0.0235138
-0.0366778
-0.0501022
-0.0638069
-0.0776458
-0.0915474
-0.1055
-0.119487
-0.13347
-0.147408
-0.161261
-0.17499
-0.188556
-0.201918
-0.215036
-0.227871
-0.240385
-0.25254
-0.264298
-0.275623
-0.286481
-0.296841
-0.306671
-0.315946
-0.324639
-0.332728
-0.340196
-0.347024
-0.353218
-0.358713
-0.363571
-0.367789
-0.371344
-0.374231
-0.376461
-0.378044
-0.378988
-0.379306
-0.379012
-0.378116
-0.376649
-0.374549
-0.00900764
-0.0207066
-0.0320682
-0.0432767
-0.0546415
-0.0661728
-0.0777693
-0.0893808
-0.100998
-0.112606
-0.12418
-0.13569
-0.147108
-0.158409
-0.169565
-0.180549
-0.191333
-0.201888
-0.212185
-0.222198
-0.231901
-0.241269
-0.250277
-0.258903
-0.267126
-0.274927
-0.282289
-0.289196
-0.295635
-0.301596
-0.307069
-0.312049
-0.316531
-0.320514
-0.323994
-0.326976
-0.329464
-0.331467
-0.332993
-0.334054
-0.334665
-0.334836
-0.334599
-0.333887
-0.0203621
-0.0307007
-0.0407177
-0.0506089
-0.0606186
-0.0707427
-0.0808983
-0.0910466
-0.10118
-0.111286
-0.121344
-0.131328
-0.141218
-0.150991
-0.160626
-0.1701
-0.179392
-0.188479
-0.197343
-0.205962
-0.214317
-0.222388
-0.230157
-0.237607
-0.244722
-0.251487
-0.257888
-0.263914
-0.269553
-0.274797
-0.279637
-0.284068
-0.288084
-0.291684
-0.294864
-0.297625
-0.299968
-0.301895
-0.30341
-0.304516
-0.30522
-0.305525
-0.305445
-0.304939
-0.0277725
-0.0366298
-0.0453313
-0.0539471
-0.0626225
-0.0713599
-0.0801061
-0.0888325
-0.0975306
-0.10619
-0.114794
-0.123324
-0.131765
-0.1401
-0.148314
-0.15639
-0.164312
-0.172063
-0.179628
-0.186991
-0.194138
-0.201054
-0.207727
-0.214143
-0.220292
-0.226162
-0.231743
-0.237027
-0.242005
-0.246671
-0.25102
-0.255047
-0.258748
-0.262123
-0.265169
-0.267886
-0.270277
-0.272344
-0.274089
-0.275518
-0.276639
-0.277457
-0.277989
-0.278192
-0.0365934
-0.0447456
-0.0526069
-0.0603795
-0.0682106
-0.0760777
-0.0839254
-0.0917324
-0.0994952
-0.107206
-0.11485
-0.122414
-0.129884
-0.137248
-0.144494
-0.151607
-0.158576
-0.165389
-0.172035
-0.178501
-0.184777
-0.190852
-0.196714
-0.202355
-0.207765
-0.212935
-0.217857
-0.222525
-0.226931
-0.23107
-0.234937
-0.238528
-0.241839
-0.244866
-0.247608
-0.250063
-0.252235
-0.254133
-0.255757
-0.257083
-0.258116
-0.258867
-0.25935
-0.259535
-0.0399347
-0.0469665
-0.0540601
-0.0610947
-0.0681091
-0.0751264
-0.0821302
-0.0891005
-0.0960265
-0.102899
-0.109709
-0.116444
-0.123093
-0.129646
-0.136094
-0.142425
-0.148629
-0.154697
-0.160618
-0.166384
-0.171985
-0.177413
-0.182661
-0.187723
-0.192592
-0.197259
-0.201719
-0.205966
-0.209996
-0.213807
-0.217395
-0.22076
-0.2239
-0.226812
-0.229484
-0.231915
-0.234105
-0.236057
-0.237764
-0.239235
-0.240458
-0.241448
-0.242224
-0.24276
-0.0504299
-0.0572745
-0.0636718
-0.070017
-0.0764279
-0.0828357
-0.0891859
-0.0954722
-0.101699
-0.107862
-0.113952
-0.119958
-0.125873
-0.131691
-0.137404
-0.143004
-0.148485
-0.153839
-0.159059
-0.164138
-0.169068
-0.173846
-0.178467
-0.182922
-0.187201
-0.191299
-0.195216
-0.198949
-0.202492
-0.205843
-0.208998
-0.211957
-0.214719
-0.217284
-0.219647
-0.221803
-0.223749
-0.225475
-0.226984
-0.228298
-0.229419
-0.230329
-0.231023
-0.231495
-0.0489002
-0.0551378
-0.0616698
-0.0680111
-0.074179
-0.08029
-0.0863647
-0.092378
-0.0983159
-0.104176
-0.109957
-0.115653
-0.121258
-0.126768
-0.132175
-0.137474
-0.14266
-0.147726
-0.152666
-0.157479
-0.162119
-0.166552
-0.170917
-0.175235
-0.179357
-0.183258
-0.186983
-0.19055
-0.193947
-0.197162
-0.200193
-0.203034
-0.205683
-0.20814
-0.210416
-0.212513
-0.214431
-0.216163
-0.217722
-0.219095
-0.220299
-0.221316
-0.222133
-0.222736
-0.0642943
-0.0702519
-0.0755303
-0.0808627
-0.0863293
-0.0917643
-0.0971006
-0.102358
-0.107556
-0.112689
-0.117747
-0.122725
-0.127618
-0.132424
-0.137135
-0.141747
-0.146256
-0.150656
-0.154942
-0.15911
-0.163157
-0.167078
-0.170873
-0.174533
-0.178049
-0.18142
-0.18465
-0.187735
-0.190671
-0.193457
-0.196087
-0.198566
-0.200861
-0.202942
-0.204851
-0.206638
-0.208308
-0.209851
-0.211259
-0.212536
-0.213688
-0.214719
-0.215636
-0.216434
-0.854782
-0.667556
-0.498367
-0.363337
-0.261494
-0.186034
-0.131066
-0.0915667
-0.0635867
-0.0438753
-0.030125
-0.0205737
-0.0139251
-0.00930195
-0.00601539
-0.00375861
-0.00224779
-0.00123406
-0.00055547
-0.000105958
0.000179143
0.000330167
0.000380806
0.00032079
0.000202772
-3.67175e-05
-0.779757
-0.629213
-0.489239
-0.376825
-0.289474
-0.219936
-0.164968
-0.123418
-0.0927565
-0.0701504
-0.0532116
-0.0405838
-0.0315388
-0.024647
-0.0189813
-0.0146393
-0.0114174
-0.00896233
-0.00701002
-0.00540966
-0.00408313
-0.00297829
-0.00204062
-0.00125794
-0.000567568
-0.000163522
-0.672087
-0.566777
-0.463481
-0.37336
-0.300415
-0.241023
-0.191095
-0.150452
-0.118578
-0.0943171
-0.0755063
-0.0607118
-0.0490849
-0.0399506
-0.0325568
-0.0264653
-0.0216149
-0.0177121
-0.0144484
-0.0116553
-0.00924089
-0.00713444
-0.00525414
-0.00358754
-0.00198855
-0.000783249
-0.595672
-0.523314
-0.447008
-0.371411
-0.30776
-0.255405
-0.2105
-0.171792
-0.139794
-0.114295
-0.0939943
-0.0775881
-0.064285
-0.0534832
-0.044564
-0.0371127
-0.030924
-0.0257431
-0.0213125
-0.0174589
-0.0140653
-0.0110412
-0.00826742
-0.00574894
-0.0032209
-0.00138795
-0.519514
-0.468573
-0.410046
-0.3515
-0.298261
-0.25271
-0.213686
-0.179655
-0.15054
-0.12584
-0.105343
-0.0884493
-0.0745139
-0.0629175
-0.0531208
-0.0447796
-0.0376641
-0.0315562
-0.0262438
-0.02156
-0.0173793
-0.0136194
-0.0101094
-0.00686121
-0.0035778
-0.00137204
-0.461777
-0.42635
-0.383072
-0.338347
-0.294454
-0.254591
-0.219918
-0.189621
-0.162849
-0.139192
-0.11874
-0.101404
-0.0868086
-0.0743572
-0.0636372
-0.0543662
-0.0463092
-0.0392567
-0.0330228
-0.0274526
-0.0224124
-0.0178057
-0.0135028
-0.00953646
-0.00546359
-0.00242498
-0.408492
-0.383755
-0.351207
-0.315648
-0.280414
-0.246965
-0.216435
-0.189068
-0.164675
-0.143017
-0.123906
-0.107128
-0.0924612
-0.0796721
-0.0685591
-0.0588621
-0.05033
-0.0427525
-0.0359638
-0.0298276
-0.0242099
-0.0190056
-0.0141361
-0.00964093
-0.00513414
-0.00197463
-0.367414
-0.350335
-0.326278
-0.298562
-0.270192
-0.242536
-0.216168
-0.191652
-0.169416
-0.149441
-0.131514
-0.115377
-0.1008
-0.0878492
-0.0764226
-0.0662783
-0.0572101
-0.0490507
-0.0416651
-0.0349244
-0.0287062
-0.022928
-0.0174795
-0.0124012
-0.00711517
-0.00311957
-0.330687
-0.319022
-0.300962
-0.279177
-0.256094
-0.232905
-0.210208
-0.188562
-0.16838
-0.149772
-0.132763
-0.117352
-0.103389
-0.0907959
-0.0794716
-0.0692137
-0.0598229
-0.0512677
-0.0434852
-0.0363491
-0.029731
-0.0235442
-0.0176647
-0.0121717
-0.00659018
-0.00260714
-0.302502
-0.294674
-0.281291
-0.264158
-0.245335
-0.225898
-0.206407
-0.187359
-0.169168
-0.152057
-0.136118
-0.12145
-0.108025
-0.0957
-0.0843838
-0.0740324
-0.0645005
-0.0557036
-0.0475997
-0.0400955
-0.0330769
-0.0264729
-0.0201449
-0.0142127
-0.00807048
-0.00350453
-0.277792
-0.272665
-0.262525
-0.248863
-0.233344
-0.216883
-0.199988
-0.183113
-0.166671
-0.150938
-0.136064
-0.122134
-0.109154
-0.0970661
-0.0858265
-0.0754532
-0.0659327
-0.0571142
-0.0489046
-0.0412136
-0.0339523
-0.0270728
-0.0204622
-0.0142375
-0.00784417
-0.00320552
-0.259221
-0.255939
-0.248273
-0.237227
-0.224237
-0.210109
-0.195293
-0.180207
-0.165248
-0.150705
-0.136751
-0.123492
-0.110981
-0.09923
-0.0882316
-0.0779474
-0.0683878
-0.0594904
-0.0511422
-0.0432696
-0.0358076
-0.0287163
-0.0218741
-0.0154061
-0.00867702
-0.00369437
-0.243461
-0.24145
-0.235425
-0.226273
-0.215212
-0.202933
-0.189818
-0.176245
-0.162586
-0.149123
-0.136042
-0.123462
-0.111461
-0.100077
-0.0893209
-0.079185
-0.0696658
-0.0607152
-0.0522417
-0.0442123
-0.0365903
-0.029335
-0.0223171
-0.0156642
-0.00874385
-0.00364949
-0.232129
-0.230868
-0.22591
-0.217948
-0.208113
-0.197028
-0.185037
-0.1725
-0.159766
-0.147101
-0.134683
-0.122643
-0.111069
-0.100015
-0.0895079
-0.0795525
-0.0701388
-0.0612359
-0.0527904
-0.0447674
-0.037124
-0.0298209
-0.0227309
-0.0159888
-0.00895329
-0.0037576
-0.22364
-0.222871
-0.21866
-0.211692
-0.202924
-0.192864
-0.181809
-0.170142
-0.158202
-0.146224
-0.134373
-0.122781
-0.111546
-0.100737
-0.090392
-0.0805255
-0.0711324
-0.0622012
-0.0537057
-0.0456111
-0.0378685
-0.0304466
-0.0232261
-0.016351
-0.00917028
-0.00385725
-0.217964
-0.216685
-0.212069
-0.205153
-0.196691
-0.187048
-0.176482
-0.165365
-0.154006
-0.142603
-0.131298
-0.120208
-0.109426
-0.0990179
-0.089021
-0.07945
-0.070305
-0.0615795
-0.0532513
-0.0452869
-0.037639
-0.0302812
-0.0231001
-0.0162453
-0.00908198
-0.00379785
0.542699
0.544834
0.550184
0.557919
0.5666
0.574434
0.578355
0.57358
0.551642
0.504097
0.498387
0.499001
0.500496
0.502108
0.502366
0.499212
0.489406
0.468455
0.427963
0.359028
0.453297
0.452711
0.451138
0.447906
0.441719
0.430583
0.41155
0.380851
0.332702
0.263409
0.408822
0.407368
0.403403
0.396474
0.385586
0.368989
0.344203
0.308335
0.256983
0.187018
0.366074
0.363988
0.358296
0.348762
0.334724
0.31475
0.286874
0.248987
0.198286
0.133678
0.325835
0.323323
0.316477
0.30525
0.289295
0.267514
0.238417
0.200564
0.152097
0.0923741
0.288634
0.285864
0.278319
0.266111
0.249171
0.226706
0.197639
0.161044
0.115893
0.0623054
0.254797
0.251894
0.243992
0.231329
0.214065
0.191673
0.163405
0.128729
0.0871005
0.0388007
0.224494
0.221545
0.213523
0.200765
0.183611
0.161751
0.1347
0.102205
0.0641208
0.0210087
0.197787
0.194848
0.186852
0.174217
0.157423
0.136336
0.110665
0.0803617
0.0454873
0.00658221
0.174673
0.171768
0.163869
0.151457
0.135128
0.114883
0.0905813
0.0623142
0.0303484
-0.00460544
0.155111
0.152242
0.144443
0.132265
0.116397
0.0969361
0.073841
0.0473039
0.0176331
-0.0146535
0.139063
0.136205
0.128432
0.116413
0.100947
0.0821906
0.060166
0.0351201
0.00754094
-0.0217373
0.126523
0.12363
0.115747
0.103686
0.0883289
0.0698938
0.048455
0.024302
-0.00221592
-0.0307559
0.117565
0.114391
0.106379
0.0944658
0.079408
0.0614198
0.0406257
0.0173169
-0.0079011
-0.0340413
0.112635
0.108096
0.0988695
0.0861724
0.0705788
0.0522368
0.0312645
0.00792232
-0.0176101
-0.0451834
0.454116
0.419593
0.382174
0.344802
0.304073
0.258097
0.207079
0.151448
0.0912353
0.0264227
-0.0427839
-0.116012
-0.192795
-0.272568
-0.354655
-0.438269
-0.522533
-0.606502
-0.689198
-0.76963
-0.846838
-0.919916
-0.988046
-1.05053
-1.10678
-1.15641
-1.19914
-1.23394
-1.26056
-1.27963
-1.29151
-1.29632
-1.29428
-1.28578
-1.27128
-1.25128
-1.22634
-1.19702
-1.16391
-1.12779
-1.08966
-1.05016
-1.00949
-0.968078
0.280267
0.241005
0.204128
0.167809
0.128233
0.0863607
0.0424992
-0.00359348
-0.0519867
-0.102513
-0.154943
-0.209053
-0.264588
-0.32122
-0.378554
-0.436164
-0.493599
-0.550388
-0.60605
-0.660096
-0.712045
-0.761428
-0.807862
-0.850938
-0.890325
-0.92544
-0.956638
-0.984093
-1.00767
-1.02649
-1.04061
-1.05031
-1.05572
-1.05688
-1.05393
-1.04704
-1.0364
-1.02222
-1.00468
-0.984004
-0.960024
-0.932866
-0.902817
-0.8705
0.20154
0.171773
0.14277
0.11431
0.0840966
0.0516552
0.0174579
-0.0182324
-0.0554007
-0.0940078
-0.133917
-0.174928
-0.21681
-0.259319
-0.302199
-0.345172
-0.387947
-0.430213
-0.471659
-0.511969
-0.550837
-0.587967
-0.623081
-0.655937
-0.686285
-0.714034
-0.738661
-0.760502
-0.779355
-0.794974
-0.807339
-0.816541
-0.822661
-0.825771
-0.825976
-0.823418
-0.818273
-0.810721
-0.800991
-0.789135
-0.775175
-0.759342
-0.742129
-0.723672
0.124609
0.0968486
0.0705358
0.0448707
0.0179293
-0.0105283
-0.0399804
-0.0701546
-0.101033
-0.13258
-0.164672
-0.197153
-0.229877
-0.262708
-0.295497
-0.328078
-0.360275
-0.391908
-0.422801
-0.452777
-0.481665
-0.509295
-0.535444
-0.559901
-0.582489
-0.602968
-0.621323
-0.638012
-0.652977
-0.666222
-0.677158
-0.685779
-0.692258
-0.696657
-0.698979
-0.69925
-0.697533
-0.693896
-0.688415
-0.681156
-0.672207
-0.661591
-0.649539
-0.635498
0.0823848
0.0602935
0.0390499
0.018258
-0.00330915
-0.0258249
-0.0489628
-0.0725478
-0.0965681
-0.121003
-0.145775
-0.17079
-0.195954
-0.22117
-0.246322
-0.27129
-0.295954
-0.320192
-0.343883
-0.366906
-0.389142
-0.410474
-0.430794
-0.450008
-0.468028
-0.484794
-0.50017
-0.514033
-0.526566
-0.537694
-0.547285
-0.555304
-0.561776
-0.56673
-0.57019
-0.57219
-0.572775
-0.572005
-0.569945
-0.566668
-0.562253
-0.556779
-0.55031
-0.542615
0.0456817
0.0262736
0.00772538
-0.0104481
-0.029195
-0.0485985
-0.0683865
-0.0884192
-0.108679
-0.12914
-0.149734
-0.170383
-0.191011
-0.211542
-0.231899
-0.252007
-0.27179
-0.291168
-0.310063
-0.328395
-0.346088
-0.363071
-0.379273
-0.394631
-0.409081
-0.422578
-0.435015
-0.446238
-0.456287
-0.465244
-0.473323
-0.480409
-0.486292
-0.490976
-0.494523
-0.496959
-0.498292
-0.498537
-0.497725
-0.495886
-0.493057
-0.489266
-0.484569
-0.47889
0.022997
0.00704307
-0.0083423
-0.0234569
-0.0389206
-0.0547845
-0.070864
-0.0870652
-0.103376
-0.11978
-0.136232
-0.15268
-0.169077
-0.185374
-0.201522
-0.217468
-0.233153
-0.248523
-0.263522
-0.278097
-0.292196
-0.305768
-0.318766
-0.331142
-0.342857
-0.353871
-0.364151
-0.373672
-0.38242
-0.390379
-0.397531
-0.403851
-0.409329
-0.413967
-0.417776
-0.420764
-0.422945
-0.424338
-0.424968
-0.42486
-0.424049
-0.422561
-0.420453
-0.417634
0.00390303
-0.00997122
-0.0233405
-0.0365017
-0.0499242
-0.063627
-0.0774635
-0.091362
-0.105312
-0.119295
-0.133275
-0.14721
-0.161061
-0.174788
-0.188351
-0.20171
-0.214825
-0.227658
-0.24017
-0.252322
-0.264078
-0.2754
-0.286256
-0.296613
-0.306442
-0.315714
-0.324405
-0.332492
-0.339958
-0.346785
-0.352977
-0.358469
-0.363325
-0.367542
-0.371094
-0.373981
-0.376209
-0.377791
-0.378734
-0.379051
-0.378755
-0.377858
-0.376391
-0.37429
-0.00884411
-0.0205384
-0.0318963
-0.0431023
-0.0544653
-0.0659949
-0.0775892
-0.0891979
-0.100812
-0.112417
-0.123989
-0.135496
-0.146912
-0.15821
-0.169364
-0.180346
-0.191128
-0.20168
-0.211975
-0.221986
-0.231686
-0.241052
-0.250058
-0.258682
-0.266903
-0.274702
-0.282062
-0.288967
-0.295404
-0.301363
-0.306835
-0.311814
-0.316294
-0.320275
-0.323754
-0.326735
-0.329222
-0.331224
-0.332749
-0.333809
-0.334419
-0.334589
-0.334351
-0.333639
-0.0201988
-0.0305333
-0.0405468
-0.0504358
-0.0604439
-0.0705664
-0.08072
-0.0908658
-0.100996
-0.1111
-0.121155
-0.131138
-0.141025
-0.150797
-0.160429
-0.169901
-0.17919
-0.188276
-0.197138
-0.205755
-0.214108
-0.222177
-0.229944
-0.237392
-0.244506
-0.251269
-0.257669
-0.263693
-0.269331
-0.274573
-0.279412
-0.283841
-0.287856
-0.291454
-0.294633
-0.297394
-0.299736
-0.301662
-0.303175
-0.304281
-0.304984
-0.305287
-0.305207
-0.3047
-0.0276096
-0.0364631
-0.0451616
-0.0537752
-0.0624491
-0.0711851
-0.0799295
-0.0886537
-0.0973493
-0.106006
-0.114608
-0.123136
-0.131575
-0.139909
-0.14812
-0.156194
-0.164114
-0.171864
-0.179427
-0.186788
-0.193933
-0.200848
-0.207519
-0.213934
-0.220081
-0.225949
-0.231529
-0.236811
-0.241788
-0.246453
-0.250801
-0.254826
-0.258527
-0.2619
-0.264945
-0.267661
-0.270051
-0.272117
-0.273862
-0.27529
-0.276411
-0.277228
-0.27776
-0.277962
-0.0364309
-0.0445798
-0.0524383
-0.060209
-0.0680387
-0.0759045
-0.0837505
-0.0915554
-0.099316
-0.107024
-0.114667
-0.122229
-0.129698
-0.13706
-0.144303
-0.151415
-0.158382
-0.165194
-0.171838
-0.178303
-0.184577
-0.19065
-0.196511
-0.20215
-0.207558
-0.212727
-0.217648
-0.222314
-0.226719
-0.230857
-0.234724
-0.238313
-0.241623
-0.244649
-0.247391
-0.249845
-0.252015
-0.253913
-0.255536
-0.256862
-0.257894
-0.258645
-0.259128
-0.259313
-0.0397722
-0.0468009
-0.0538919
-0.0609247
-0.0679378
-0.0749539
-0.0819561
-0.0889246
-0.0958486
-0.10272
-0.109527
-0.11626
-0.122908
-0.12946
-0.135906
-0.142235
-0.148438
-0.154504
-0.160424
-0.166188
-0.171788
-0.177215
-0.182462
-0.187522
-0.192389
-0.197056
-0.201514
-0.20576
-0.209789
-0.213599
-0.217186
-0.220549
-0.223689
-0.226599
-0.229271
-0.231702
-0.23389
-0.235843
-0.237549
-0.23902
-0.240242
-0.241232
-0.242008
-0.242544
-0.0502683
-0.05711
-0.0635049
-0.0698484
-0.0762579
-0.0826645
-0.0890132
-0.0952978
-0.101523
-0.107684
-0.113772
-0.119777
-0.125691
-0.131507
-0.137218
-0.142817
-0.148296
-0.153649
-0.158867
-0.163945
-0.168874
-0.17365
-0.17827
-0.182724
-0.187001
-0.191098
-0.195014
-0.198746
-0.202289
-0.205638
-0.208792
-0.21175
-0.214512
-0.217075
-0.219438
-0.221594
-0.223539
-0.225265
-0.226773
-0.228088
-0.229207
-0.230117
-0.230811
-0.231283
-0.0487383
-0.0549733
-0.0615031
-0.0678428
-0.0740095
-0.0801193
-0.0861926
-0.0922043
-0.0981403
-0.103999
-0.109778
-0.115473
-0.121077
-0.126584
-0.13199
-0.137288
-0.142472
-0.147538
-0.152476
-0.157287
-0.161926
-0.166358
-0.170722
-0.175039
-0.17916
-0.183059
-0.186783
-0.19035
-0.193746
-0.19696
-0.19999
-0.202831
-0.205479
-0.207935
-0.210211
-0.212307
-0.214224
-0.215956
-0.217514
-0.218887
-0.22009
-0.221107
-0.221924
-0.222527
-0.0641328
-0.0700879
-0.0753641
-0.0806949
-0.0861603
-0.0915942
-0.0969293
-0.102185
-0.107381
-0.112512
-0.117569
-0.122546
-0.127438
-0.132242
-0.136952
-0.141563
-0.14607
-0.150468
-0.154753
-0.158921
-0.162966
-0.166886
-0.170679
-0.174338
-0.177853
-0.181224
-0.184453
-0.187537
-0.190473
-0.193257
-0.195887
-0.198365
-0.200659
-0.202739
-0.204648
-0.206435
-0.208105
-0.209647
-0.211054
-0.212331
-0.213482
-0.214513
-0.21543
-0.216228
-0.854393
-0.667187
-0.498053
-0.363104
-0.26134
-0.185933
-0.130984
-0.0914884
-0.0635138
-0.0438177
-0.0300897
-0.0205626
-0.0139343
-0.00932007
-0.0060309
-0.00376873
-0.0022576
-0.00124897
-0.000577654
-0.00013343
0.00015139
0.000306826
0.000364133
0.00031026
0.000199092
-4.04884e-05
-0.779396
-0.628869
-0.488938
-0.376588
-0.289301
-0.219812
-0.164872
-0.123332
-0.0926773
-0.070083
-0.0531621
-0.0405551
-0.0315296
-0.0246505
-0.0189857
-0.0146388
-0.0114156
-0.0089652
-0.00702069
-0.00542664
-0.00410186
-0.00299422
-0.00205133
-0.001264
-0.000568225
-0.000165474
-0.671745
-0.566451
-0.463194
-0.373127
-0.300233
-0.240881
-0.190981
-0.150354
-0.118492
-0.0942409
-0.0754449
-0.0606684
-0.0490595
-0.039938
-0.0325482
-0.0264558
-0.0216061
-0.0177079
-0.0144512
-0.0116641
-0.00925213
-0.00714437
-0.00526047
-0.00359152
-0.00198818
-0.000785005
-0.595349
-0.523006
-0.446734
-0.371184
-0.307574
-0.255252
-0.21037
-0.171681
-0.139696
-0.11421
-0.0939241
-0.077534
-0.0642452
-0.0534545
-0.0445422
-0.0370944
-0.0309088
-0.0257325
-0.0213076
-0.0174589
-0.014068
-0.0110439
-0.00826802
-0.00574736
-0.00321695
-0.00138792
-0.51921
-0.468282
-0.409783
-0.351275
-0.298075
-0.252553
-0.213548
-0.179534
-0.150433
-0.12575
-0.105268
-0.0883901
-0.0744659
-0.0628786
-0.0530891
-0.0447537
-0.0376432
-0.0315403
-0.026233
-0.0215537
-0.0173767
-0.013618
-0.0101074
-0.00685712
-0.00357297
-0.00137197
-0.461489
-0.426072
-0.382817
-0.338124
-0.294266
-0.254431
-0.219776
-0.189493
-0.162734
-0.139092
-0.118657
-0.101336
-0.0867518
-0.0743096
-0.0635969
-0.0543318
-0.04628
-0.0392328
-0.0330042
-0.0274387
-0.0224022
-0.0177978
-0.0134959
-0.00953021
-0.00545803
-0.00242437
-0.408219
-0.383489
-0.350961
-0.31543
-0.280227
-0.246804
-0.216292
-0.188937
-0.164554
-0.142909
-0.123814
-0.107051
-0.0923988
-0.0796203
-0.0685147
-0.058823
-0.0502959
-0.0427238
-0.0359406
-0.0298096
-0.0241953
-0.0189942
-0.0141272
-0.00963454
-0.00512907
-0.00197464
-0.367153
-0.350081
-0.326041
-0.29835
-0.270007
-0.242375
-0.216023
-0.191518
-0.169292
-0.149328
-0.131415
-0.115294
-0.100732
-0.0877914
-0.0763721
-0.0662329
-0.0571698
-0.0490162
-0.0416364
-0.0349011
-0.0286874
-0.0229135
-0.0174684
-0.0123931
-0.0071084
-0.00311841
-0.330438
-0.318778
-0.300733
-0.27897
-0.255911
-0.232743
-0.210061
-0.188425
-0.168253
-0.149656
-0.132661
-0.117264
-0.103314
-0.0907309
-0.0794142
-0.0691628
-0.0597789
-0.0512304
-0.0434541
-0.0363234
-0.0297101
-0.0235275
-0.0176518
-0.0121625
-0.0065835
-0.00260633
-0.302263
-0.294439
-0.28107
-0.263955
-0.245154
-0.225734
-0.206258
-0.187221
-0.16904
-0.15194
-0.136013
-0.121358
-0.107944
-0.09563
-0.0843222
-0.0739782
-0.0644532
-0.0556632
-0.0475655
-0.0400669
-0.0330533
-0.0264534
-0.0201293
-0.0142013
-0.00806254
-0.00350308
-0.277561
-0.272439
-0.262309
-0.248665
-0.233164
-0.21672
-0.199838
-0.182974
-0.166542
-0.150819
-0.135957
-0.122039
-0.10907
-0.0969929
-0.0857621
-0.0753962
-0.0658818
-0.0570696
-0.0488663
-0.0411816
-0.0339261
-0.0270518
-0.0204461
-0.014226
-0.00783642
-0.00320418
-0.258998
-0.255719
-0.248063
-0.237032
-0.224059
-0.209947
-0.195144
-0.180068
-0.165118
-0.150585
-0.136642
-0.123394
-0.110895
-0.0991537
-0.0881638
-0.0778872
-0.0683341
-0.0594429
-0.0511013
-0.0432355
-0.0357797
-0.0286942
-0.021857
-0.0153939
-0.00866869
-0.00369263
-0.243244
-0.241236
-0.23522
-0.226081
-0.215036
-0.202771
-0.189669
-0.176106
-0.162456
-0.149003
-0.135932
-0.123363
-0.111373
-0.0999991
-0.0892511
-0.0791227
-0.0696103
-0.0606664
-0.0521998
-0.0441772
-0.0365616
-0.0293119
-0.0222988
-0.0156509
-0.00873486
-0.00364745
-0.231917
-0.230658
-0.225708
-0.217759
-0.207939
-0.196867
-0.184888
-0.17236
-0.159635
-0.146979
-0.134572
-0.122542
-0.110979
-0.0999352
-0.089436
-0.0794882
-0.0700816
-0.0611856
-0.052747
-0.0447308
-0.0370936
-0.0297963
-0.0227114
-0.0159745
-0.00894368
-0.00375524
-0.223431
-0.222665
-0.218462
-0.211505
-0.202751
-0.192704
-0.18166
-0.170003
-0.158072
-0.146102
-0.134262
-0.122679
-0.111455
-0.100656
-0.0903189
-0.0804601
-0.0710742
-0.0621501
-0.0536616
-0.0455737
-0.0378375
-0.0304215
-0.0232064
-0.0163366
-0.00916076
-0.00385499
-0.217757
-0.216481
-0.211872
-0.204968
-0.196519
-0.186889
-0.176335
-0.165227
-0.153875
-0.142481
-0.131186
-0.120106
-0.109335
-0.0989355
-0.0889471
-0.0793836
-0.0702458
-0.0615275
-0.0532061
-0.0452485
-0.037607
-0.030255
-0.0230794
-0.01623
-0.0090717
-0.0037951
0.568651
0.5717
0.579658
0.591697
0.606511
0.62281
0.637992
0.648086
0.642501
0.612813
0.578556
0.581926
0.590871
0.604571
0.621783
0.64144
0.661194
0.677464
0.679232
0.659744
0.588214
0.59192
0.601874
0.61727
0.636943
0.660076
0.684621
0.707454
0.717495
0.709379
0.5976
0.601653
0.612614
0.629709
0.651867
0.678539
0.70804
0.737766
0.756908
0.761131
0.606689
0.611094
0.623058
0.641851
0.666514
0.696788
0.731403
0.768348
0.797368
0.815175
0.615455
0.620212
0.63317
0.653652
0.680825
0.714735
0.754587
0.799029
0.83866
0.871215
0.623872
0.628979
0.642916
0.665069
0.694738
0.732298
0.777478
0.829649
0.880558
0.929012
0.631914
0.637364
0.652262
0.676054
0.708192
0.749389
0.799947
0.860023
0.922794
0.988222
0.639555
0.645339
0.661172
0.686564
0.721124
0.765916
0.82186
0.889947
0.965062
1.04843
0.64677
0.652878
0.669613
0.696553
0.73347
0.781788
0.843073
0.919202
1.00702
1.10914
0.653535
0.659952
0.677552
0.705976
0.745167
0.796908
0.863439
0.947554
1.04828
1.16978
0.659826
0.666537
0.684956
0.714791
0.756153
0.811183
0.882808
0.974759
1.08844
1.22967
0.665622
0.672609
0.691795
0.722954
0.766365
0.824518
0.901026
1.00056
1.12705
1.28807
0.670901
0.678143
0.69804
0.730427
0.775746
0.836823
0.917944
1.02471
1.16364
1.34419
0.675644
0.683119
0.703663
0.737173
0.78424
0.848009
0.933414
1.04695
1.19774
1.39716
0.679835
0.687518
0.708641
0.743155
0.791795
0.857995
0.947296
1.06704
1.22887
1.4461
0.683457
0.691321
0.712951
0.748344
0.798364
0.866705
0.959461
1.08474
1.25657
1.49012
0.686496
0.694515
0.716573
0.752712
0.803904
0.874072
0.96979
1.09984
1.2804
1.52837
0.688941
0.697085
0.719491
0.756234
0.808381
0.880037
0.978182
1.11216
1.29997
1.56006
0.690783
0.699022
0.721691
0.758893
0.811764
0.884553
0.98455
1.12154
1.31496
1.5845
0.692014
0.700317
0.723162
0.760672
0.814031
0.887583
0.988831
1.12786
1.32509
1.60112
0.692631
0.700965
0.723899
0.761564
0.815167
0.889103
0.99098
1.13103
1.33018
1.60953
0.692629
0.700963
0.723897
0.761562
0.815166
0.889101
0.990978
1.13103
1.33018
1.60953
0.692009
0.700312
0.723158
0.760667
0.814026
0.887578
0.988825
1.12785
1.32508
1.60112
0.690775
0.699014
0.721683
0.758884
0.811755
0.884543
0.98454
1.12153
1.31494
1.58449
0.68893
0.697074
0.719479
0.756222
0.808368
0.880023
0.978167
1.11215
1.29996
1.56004
0.686482
0.6945
0.716558
0.752696
0.803888
0.874054
0.969771
1.09982
1.28038
1.52835
0.683439
0.691304
0.712933
0.748325
0.798344
0.866684
0.959438
1.08472
1.25654
1.49009
0.679814
0.687497
0.70862
0.743133
0.791771
0.85797
0.947269
1.06701
1.22884
1.44606
0.675621
0.683095
0.703639
0.737147
0.784213
0.84798
0.933382
1.04692
1.1977
1.39712
0.670874
0.678116
0.698012
0.730399
0.775716
0.83679
0.917908
1.02467
1.1636
1.34414
0.665592
0.672578
0.691764
0.722922
0.766331
0.824482
0.900986
1.00052
1.127
1.28802
0.659793
0.666504
0.684922
0.714755
0.756115
0.811143
0.882763
0.97471
1.08839
1.2296
0.653499
0.659916
0.677515
0.705938
0.745126
0.796864
0.863391
0.9475
1.04822
1.16971
0.646731
0.652839
0.669573
0.696511
0.733426
0.78174
0.84302
0.919144
1.00695
1.10907
0.639513
0.645297
0.661129
0.686519
0.721076
0.765865
0.821803
0.889884
0.96499
1.04835
0.631869
0.637318
0.652216
0.676006
0.708141
0.749333
0.799887
0.859956
0.922717
0.988134
0.623824
0.62893
0.642867
0.665018
0.694684
0.732239