/*--------------------------------*- C++ -*----------------------------------*\
| =========                 |                                                 |
| \\      /  F ield         | OpenFOAM: The Open Source CFD Toolbox           |
|  \\    /   O peration     | Version:  2412                                  |
|   \\  /    A nd           | Website:  www.openfoam.com                      |
|    \\/     M anipulation  |                                                 |
\*---------------------------------------------------------------------------*/
FoamFile
{
    version     2.0;
    format      ascii;
    arch        "LSB;label=32;scalar=64";
    class       surfaceScalarField;
    location    "1500";
    object      phi;
}
// * * * * * * * * * * * * * * * * * * * * * * * * * * * * * * * * * * * * * //

dimensions      [0 3 -1 0 0 0 0];

oriented        oriented;

internalField   nonuniform List<scalar> 
17548
(
4.68721
0.00474643
-0.0044596
4.68643
0.0142274
-0.013447
4.68521
0.024298
-0.0230788
4.6837
0.0354177
-0.0339074
4.68216
0.0480576
-0.046515
4.68105
0.0627496
-0.0616368
4.6811
0.0800481
-0.0800995
4.68361
0.100666
-0.103178
4.69013
0.124861
-0.13138
0.154693
4.70138
-0.16594
4.68742
0.00482567
4.68719
0.0144612
4.6869
0.0245829
4.68676
0.0355638
4.68706
0.0477561
4.6883
0.06151
4.69121
0.07714
4.69695
0.0949194
4.70718
0.114628
0.135856
4.72602
4.68757
0.00475676
4.68778
0.0142483
4.68824
0.0241207
4.68915
0.0346547
4.69082
0.0460909
4.69369
0.0586335
4.69842
0.0724156
4.70588
0.087461
4.71697
0.103536
0.120303
4.73252
4.68769
0.00456901
4.68824
0.0136928
4.68927
0.0230918
4.69096
0.0329681
4.69358
0.0434727
4.69751
0.0547027
4.70325
0.0666691
4.71145
0.0792631
4.72288
0.0921032
0.104416
4.73877
4.68777
0.00429862
4.68858
0.012886
4.69001
0.0216599
4.69222
0.0307531
4.69545
0.0402481
4.69998
0.0501676
4.7062
0.0604515
4.71454
0.0709227
4.72539
0.0812558
0.0908289
4.73898
4.68783
0.00397225
4.6888
0.0119104
4.6905
0.0199637
4.69304
0.0282102
4.69661
0.0366825
4.70142
0.0453571
4.70773
0.054136
4.71583
0.062822
4.72599
0.0710983
0.0783117
4.73851
4.68786
0.00361174
4.68894
0.0108315
4.69079
0.0181126
4.69351
0.0254923
4.69722
0.0329696
4.70208
0.0404942
4.70827
0.0479539
4.71593
0.0551546
4.72519
0.0618442
0.0675092
4.73599
4.68788
0.00323356
4.68901
0.00969878
4.69094
0.0161876
4.69372
0.0227092
4.69745
0.0292419
4.70222
0.0357227
4.70813
0.0420386
4.71528
0.048013
4.72369
0.0534287
0.057822
4.73338
4.68788
0.00284924
4.68904
0.00854675
4.69098
0.0142442
4.69376
0.0199337
4.69741
0.0255824
4.70201
0.0311233
4.7076
0.0364515
4.7142
0.0414127
4.72179
0.045842
0.0493877
4.73022
4.68788
0.00246589
4.68903
0.00739685
4.69096
0.0123165
4.69369
0.0172086
4.69723
0.0220357
4.70162
0.0267331
4.70687
0.0312073
4.71295
0.0353287
4.71984
0.0389564
0.0417757
4.72745
4.68788
0.00208683
4.68902
0.00625939
4.69091
0.0104203
4.69357
0.0145523
4.69699
0.0186173
4.70116
0.022556
4.70608
0.0262886
4.7117
0.0297082
4.71794
0.0327209
0.0351215
4.72459
4.68787
0.00171214
4.689
0.00513485
4.69086
0.00855785
4.69345
0.0119653
4.69675
0.0153198
4.70073
0.0185701
4.70537
0.0216502
4.7106
0.024476
4.71637
0.0269508
0.0288499
4.72264
4.68787
0.00133865
4.689
0.00401157
4.69084
0.00671792
4.69337
0.00943675
4.69656
0.0121296
4.70037
0.0147529
4.70477
0.0172548
4.70967
0.0195704
4.71496
0.0216679
0.023492
4.72031
4.68788
0.000960377
4.68902
0.00287011
4.69087
0.00487028
4.69338
0.00691931
4.69653
0.00898294
4.70026
0.011025
4.70451
0.0130017
4.70922
0.0148669
4.71434
0.0165441
0.0178669
4.71996
4.68792
0.000535556
4.68908
0.00171243
4.69092
0.00303639
4.6934
0.00443748
4.69648
0.00590523
4.7001
0.00740014
4.70421
0.00888829
4.70874
0.0103394
4.7135
0.0117841
0.0133573
4.71801
4.68814
4.68946
4.69145
4.69406
4.69723
4.7009
4.70503
4.70957
4.71452
4.71998
4.7011
-0.0412416
0.0415147
4.7017
-0.0362033
0.0356067
4.70324
-0.0311858
0.0296461
4.70576
-0.0261568
0.023642
4.70928
-0.0211495
0.0176205
4.71387
-0.0162003
0.0116157
4.71953
-0.0113272
0.00566186
4.72629
-0.00654498
-0.000209767
4.73412
-0.0018712
-0.00596273
4.74301
0.00267372
-0.0115569
4.75289
0.00706985
-0.0169535
4.7637
0.0112998
-0.0221142
4.77536
0.0153443
-0.0269991
4.78774
0.0191857
-0.0315709
4.80073
0.0228096
-0.0357958
4.81417
0.0262041
-0.0396454
4.82791
0.0293607
-0.0430978
4.84177
0.0322742
-0.0461388
4.85559
0.0349433
-0.048763
4.8692
0.0373703
-0.0509743
4.88242
0.039561
-0.0527853
4.89511
0.0415247
-0.0542179
4.90714
0.0432697
-0.0552979
4.91839
0.0448177
-0.0560664
4.92878
0.0461391
-0.0565268
4.93825
0.0473399
-0.0568139
4.94662
0.0486069
-0.0569753
4.95386
0.0497873
-0.0570212
4.96001
0.050797
-0.0569516
4.96511
0.0517366
-0.0568356
4.96918
0.0526471
-0.05672
4.97227
0.053557
-0.0566467
4.97444
0.0544896
-0.0566534
4.97574
0.0554651
-0.056773
4.97628
0.0565014
-0.0570344
4.97612
0.0576152
-0.0574624
4.97538
0.0588187
-0.0580781
4.97415
0.0601311
-0.0588974
4.97255
0.0615315
-0.0599361
4.97077
0.0629534
-0.0611658
4.9689
0.0644921
-0.0626214
4.96701
0.066188
-0.0642983
4.96523
0.068022
-0.0662449
0.0700051
4.9634
-0.0681797
4.72618
-0.0414052
4.72696
-0.0369742
4.72834
-0.0325712
4.73039
-0.0282049
4.73314
-0.023897
4.73658
-0.0196425
4.7407
-0.0154505
4.74549
-0.0113349
4.75093
-0.0073072
4.75698
-0.00337847
4.76361
0.000439761
4.77077
0.00413653
4.77842
0.00770171
4.78648
0.0111265
4.79488
0.0144034
4.80356
0.0175267
4.81243
0.0204924
4.8214
0.0232987
4.8304
0.0259459
4.83933
0.0284367
4.84812
0.0307756
4.85668
0.0329593
4.86495
0.0350004
4.87287
0.0369062
4.8803
0.0387
4.88733
0.0403145
4.89394
0.0419996
4.90011
0.0436113
4.90572
0.0451907
4.91078
0.0466749
4.9153
0.0481255
4.91929
0.0495665
4.92277
0.0510142
4.92575
0.0524832
4.92826
0.0539866
4.93034
0.055537
4.93202
0.0571432
4.93333
0.0588237
4.93431
0.0605499
4.93494
0.0623255
4.93524
0.064184
4.93526
0.0661679
4.93512
0.0681701
0.0703802
4.93474
4.73165
-0.0405296
4.73129
-0.03662
4.73149
-0.0327707
4.73225
-0.0289645
4.73356
-0.0252048
4.73542
-0.0215002
4.73782
-0.0178552
4.74076
-0.0142744
4.74422
-0.0107639
4.74817
-0.00733042
4.75259
-0.00397986
4.75744
-0.000716965
4.76269
0.00245376
4.76829
0.00552826
4.77419
0.00850322
4.78034
0.0113762
4.78669
0.0141459
4.79317
0.0168119
4.79975
0.019375
4.80634
0.0218376
4.81292
0.0242019
4.81942
0.0264623
4.82579
0.0286262
4.832
0.0307004
4.83801
0.0326809
4.84375
0.0345837
4.84926
0.0364838
4.85449
0.0383776
4.85942
0.0402611
4.86404
0.0420548
4.86836
0.0438113
4.87237
0.0455505
4.8761
0.0472843
4.87957
0.0490221
4.88278
0.050772
4.88578
0.0525416
4.88858
0.0543376
4.89124
0.056167
4.89375
0.058034
4.89614
0.0599436
4.89842
0.0618979
4.90067
0.0639149
4.90297
0.0658758
0.0680009
4.90535
4.73758
-0.0393398
4.73686
-0.0358993
4.73659
-0.0325021
4.73677
-0.0291401
4.73738
-0.0258169
4.73842
-0.0225369
4.73986
-0.0193033
4.74171
-0.0161193
4.74393
-0.0129887
4.74652
-0.00991518
4.74944
-0.00690209
4.75268
-0.00395234
4.7562
-0.00106891
4.75998
0.00174563
4.764
0.00448947
4.76821
0.00716129
4.7726
0.00976048
4.77712
0.0122871
4.78175
0.0147418
4.78647
0.017126
4.79123
0.0194418
4.796
0.0216921
4.80074
0.0238814
4.80543
0.0260126
4.81001
0.0280986
4.81448
0.0301132
4.81891
0.0320581
4.82326
0.0340197
4.82758
0.035945
4.83175
0.0378835
4.83579
0.0397693
4.83971
0.0416352
4.8435
0.0434932
4.84717
0.0453502
4.85073
0.0472124
4.85419
0.0490855
4.85755
0.0509745
4.86083
0.0528845
4.86405
0.0548198
4.86721
0.0567839
4.87032
0.058784
4.87343
0.0608097
4.87645
0.0628573
0.0649335
4.87951
4.7371
-0.0374648
4.7356
-0.0343983
4.73448
-0.0313769
4.73372
-0.0283883
4.73334
-0.0254319
4.73331
-0.0225111
4.73364
-0.0196284
4.7343
-0.016786
4.7353
-0.0139859
4.73662
-0.0112303
4.73824
-0.00852103
4.74014
-0.00585983
4.74232
-0.00324809
4.74475
-0.000686808
4.74742
0.0018234
4.7503
0.00428218
4.75337
0.00668959
4.75661
0.00904598
4.76
0.0113521
4.76352
0.0136091
4.76714
0.0158186
4.77085
0.0179824
4.77463
0.0201031
4.77846
0.0221825
4.78233
0.024227
4.78622
0.026227
4.7901
0.0281783
4.794
0.0301158
4.79791
0.0320403
4.8018
0.0339907
4.80567
0.0358935
4.80953
0.0377779
4.81337
0.0396528
4.8172
0.0415232
4.82102
0.0433936
4.82484
0.0452676
4.82866
0.0471489
4.83251
0.0490407
4.83638
0.0509462
4.84029
0.052868
4.84427
0.0548093
4.84831
0.0567711
4.85241
0.0587594
0.0607576
4.85658
4.73623
-0.0351901
4.73431
-0.0324715
4.73272
-0.0297878
4.73146
-0.0271306
4.73053
-0.0245001
4.72992
-0.0218982
4.72961
-0.019326
4.72961
-0.016785
4.7299
-0.0142762
4.73047
-0.0118011
4.73131
-0.00936063
4.73241
-0.00695574
4.73375
-0.00458724
4.73532
-0.00225548
4.7371
3.88723e-05
4.73909
0.0022958
4.74126
0.00451527
4.74361
0.00669752
4.74612
0.00884329
4.74877
0.0109533
4.75156
0.0130288
4.75448
0.0150711
4.7575
0.0170816
4.76062
0.0190625
4.76383
0.0210155
4.76711
0.022943
4.77044
0.0248479
4.77383
0.0267337
4.77726
0.0286021
4.7808
0.0304585
4.7844
0.0322892
4.78805
0.0341245
4.79176
0.0359481
4.79551
0.0377666
4.79932
0.0395834
4.80319
0.0414011
4.80712
0.0432226
4.81111
0.0450502
4.81517
0.0468865
4.8193
0.0487336
4.82352
0.0505937
4.82782
0.0524681
4.83222
0.0543616
0.0562625
4.83671
4.73325
-0.0324468
4.73081
-0.0300351
4.72868
-0.0276549
4.72684
-0.0252972
4.72531
-0.0229613
4.72406
-0.0206484
4.72309
-0.0183593
4.7224
-0.0160951
4.72198
-0.0138564
4.72182
-0.0116441
4.72192
-0.00945881
4.72227
-0.00730101
4.72285
-0.00517116
4.72366
-0.00306959
4.7247
-0.000996386
4.72595
0.00104857
4.7274
0.0030654
4.72904
0.00505463
4.73087
0.00701677
4.73287
0.00895238
4.73503
0.0108625
4.73736
0.012748
4.73983
0.0146101
4.74244
0.01645
4.74519
0.0182692
4.74806
0.0200692
4.75106
0.0218516
4.75417
0.0236184
4.7574
0.025371
4.76075
0.0271149
4.7642
0.0288374
4.76776
0.0305666
4.77142
0.0322847
4.77519
0.0339971
4.77907
0.0357066
4.78305
0.0374153
4.78715
0.0391249
4.79136
0.0408371
4.79569
0.0425539
4.80015
0.0442764
4.80474
0.0460065
4.80946
0.0477451
4.81433
0.0494952
0.0512509
4.81934
4.73032
-0.0293849
4.72755
-0.0272673
4.72507
-0.0251744
4.72287
-0.0230996
4.72095
-0.0210426
4.71931
-0.0190042
4.71793
-0.0169847
4.71682
-0.0149846
4.71597
-0.0130045
4.71537
-0.0110448
4.71502
-0.00910583
4.7149
-0.00718791
4.71502
-0.00529124
4.71537
-0.003416
4.71594
-0.001562
4.71671
0.000270718
4.7177
0.00208234
4.71888
0.00387315
4.72025
0.00564354
4.72181
0.00739403
4.72355
0.00912519
4.72546
0.0108379
4.72754
0.0125328
4.72977
0.014211
4.73217
0.0158734
4.73472
0.0175211
4.73741
0.0191554
4.74026
0.0207774
4.74324
0.0223885
4.74636
0.02399
4.74962
0.0255831
4.75301
0.0271694
4.75655
0.0287501
4.76022
0.0303265
4.76403
0.0319001
4.76797
0.0334722
4.77205
0.0350443
4.77627
0.0366175
4.78063
0.0381933
4.78513
0.0397727
4.78978
0.0413572
4.79458
0.0429475
4.79953
0.0445458
0.0461479
4.80463
4.72685
-0.0260087
4.72375
-0.0241665
4.72092
-0.0223455
4.71836
-0.0205397
4.71606
-0.0187483
4.71403
-0.0169714
4.71225
-0.0152099
4.71073
-0.0134639
4.70946
-0.0117337
4.70844
-0.0100196
4.70765
-0.00832196
4.70711
-0.00664088
4.70679
-0.00497644
4.70671
-0.00332872
4.70684
-0.00169767
4.70719
-8.32234e-05
4.70776
0.00151477
4.70854
0.00309662
4.70952
0.00466281
4.7107
0.00621355
4.71208
0.0077494
4.71364
0.00927093
4.7154
0.0107787
4.71733
0.0122735
4.71945
0.0137559
4.72175
0.0152269
4.72421
0.0166873
4.72685
0.0181378
4.72966
0.0195795
4.73264
0.0210134
4.73578
0.0224403
4.73909
0.0238613
4.74256
0.0252775
4.7462
0.0266897
4.75
0.028099
4.75397
0.0295063
4.7581
0.0309126
4.7624
0.0323188
4.76686
0.0337257
4.7715
0.0351345
4.77631
0.0365456
4.7813
0.03796
4.78647
0.0393788
0.0408003
4.79182
4.72385
-0.0224137
4.72053
-0.0208411
4.71747
-0.0192842
4.71467
-0.0177394
4.71212
-0.0162063
4.70984
-0.0146851
4.7078
-0.013176
4.70602
-0.0116792
4.70448
-0.0101948
4.70318
-0.00872314
4.70213
-0.00726443
4.7013
-0.00581858
4.70071
-0.00438577
4.70035
-0.00296596
4.70021
-0.001559
4.70029
-0.000164952
4.70059
0.00121644
4.7011
0.00258527
4.70182
0.00394196
4.70275
0.00528658
4.70388
0.00661962
4.70521
0.00794155
4.70674
0.0092527
4.70846
0.0105537
4.71037
0.011845
4.71247
0.0131271
4.71475
0.0144009
4.71722
0.0156669
4.71988
0.0169257
4.72271
0.0181781
4.72573
0.0194248
4.72892
0.0206665
4.7323
0.021904
4.73585
0.0231381
4.73958
0.0243694
4.74349
0.0255987
4.74757
0.0268268
4.75184
0.0280543
4.75628
0.0292821
4.7609
0.0305108
4.76571
0.031741
4.7707
0.0329734
4.77587
0.0342089
0.0354462
4.78122
4.72079
-0.0186059
4.71724
-0.0172925
4.71395
-0.0159938
4.71091
-0.0147049
4.70813
-0.0134249
4.7056
-0.0121543
4.70332
-0.0108932
4.70128
-0.00964198
4.69949
-0.00840068
4.69793
-0.00716944
4.69662
-0.00594838
4.69553
-0.0047376
4.69469
-0.00353708
4.69407
-0.00234691
4.69368
-0.00116694
4.69351
2.71532e-06
4.69356
0.0011624
4.69383
0.00231214
4.69432
0.00345211
4.69503
0.00458276
4.69594
0.00570408
4.69707
0.00681653
4.6984
0.00792052
4.69994
0.00901625
4.70168
0.0101042
4.70362
0.0111849
4.70576
0.0122587
4.7081
0.0133261
4.71064
0.0143877
4.71338
0.0154438
4.71631
0.0164952
4.71943
0.0175423
4.72275
0.0185857
4.72626
0.0196259
4.72997
0.0206636
4.73387
0.0216992
4.73796
0.0227333
4.74225
0.0237665
4.74673
0.0247993
4.75141
0.025832
4.75629
0.026865
4.76136
0.0278989
4.76663
0.0289341
0.0299704
4.77211
4.7187
-0.0146639
4.71502
-0.0136084
4.71159
-0.0125607
4.7084
-0.0115208
4.70546
-0.0104887
4.70278
-0.00946433
4.70033
-0.00844741
4.69813
-0.0074383
4.69616
-0.00643703
4.69444
-0.00544386
4.69295
-0.0044588
4.69169
-0.00348184
4.69067
-0.0025131
4.68987
-0.00155256
4.68931
-0.000600186
4.68896
0.00034408
4.68885
0.00128029
4.68895
0.00220868
4.68927
0.00312919
4.68981
0.00404217
4.69057
0.00494778
4.69154
0.00584622
4.69272
0.00673772
4.69412
0.00762269
4.69572
0.00850142
4.69753
0.00937418
4.69955
0.0102413
4.70177
0.0111032
4.7042
0.0119602
4.70683
0.0128128
4.70966
0.0136614
4.7127
0.0145065
4.71594
0.0153484
4.71937
0.0161877
4.72301
0.0170248
4.72685
0.0178596
4.73089
0.018691
4.73514
0.0195218
4.73958
0.020356
4.74423
0.0211891
4.74907
0.0220211
4.75411
0.0228533
4.75936
0.0236864
0.0245202
4.76481
4.71624
-0.0105862
4.71241
-0.00977991
4.70883
-0.00898483
4.70551
-0.00819499
4.70243
-0.00740958
4.69959
-0.00662972
4.697
-0.00585579
4.69465
-0.00508801
4.69254
-0.00432643
4.69067
-0.00357111
4.68903
-0.00282221
4.68763
-0.00207974
4.68646
-0.0013439
4.68552
-0.000614436
4.68481
0.000108318
4.68433
0.000824671
4.68408
0.00153445
4.68405
0.00223796
4.68424
0.00293511
4.68466
0.00362616
4.6853
0.00431134
4.68615
0.00499049
4.68723
0.00566384
4.68852
0.00633168
4.69002
0.00699468
4.69174
0.00765276
4.69368
0.00830608
4.69583
0.00895501
4.69819
0.00959962
4.70076
0.0102404
4.70354
0.0108774
4.70654
0.0115108
4.70975
0.012142
4.71316
0.0127723
4.71679
0.0134005
4.72062
0.0140272
4.72466
0.0146496
4.72891
0.0152737
4.73337
0.0158983
4.73803
0.0165258
4.7429
0.0171482
4.74799
0.0177695
4.75328
0.0183908
0.0190124
4.75879
4.7158
-0.0064189
4.71188
-0.00586397
4.70821
-0.00530881
4.70477
-0.0047591
4.70158
-0.00421536
4.69862
-0.00367634
4.69591
-0.00314185
4.69343
-0.00261209
4.69119
-0.00208739
4.68919
-0.00156793
4.68742
-0.00105361
4.68589
-0.000544572
4.68458
-4.08931e-05
4.68351
0.000457497
4.68267
0.000950405
4.68206
0.001438
4.68167
0.0019203
4.68151
0.00239729
4.68158
0.0028692
4.68187
0.00333603
4.68238
0.0037978
4.68312
0.00425405
4.68407
0.00470597
4.68525
0.00515413
4.68665
0.00559802
4.68826
0.00603733
4.6901
0.0064726
4.69215
0.006904
4.69442
0.00733183
4.6969
0.00775613
4.6996
0.00817699
4.70252
0.00859444
4.70565
0.00900968
4.709
0.00942467
4.71256
0.00983844
4.71634
0.0102512
4.72032
0.0106619
4.72452
0.0110738
4.72894
0.0114826
4.73357
0.0118951
4.73841
0.012304
4.74347
0.0127133
4.74874
0.0131204
0.0135269
4.75423
4.71384
-0.00224674
4.70989
-0.00191913
4.70619
-0.00160401
4.70272
-0.00129331
4.69949
-0.000985443
4.6965
-0.000681501
4.69374
-0.000382419
4.69122
-8.79157e-05
4.68893
0.00020198
4.68687
0.000487402
4.68505
0.000768351
4.68346
0.00104463
4.6821
0.0013164
4.68098
0.0015836
4.68008
0.00184617
4.67941
0.00210431
4.67898
0.00235793
4.67877
0.00260719
4.67878
0.00285215
4.67903
0.00309289
4.67949
0.00332982
4.68019
0.00356334
4.6811
0.00379265
4.68224
0.00401733
4.6836
0.00423855
4.68518
0.00445666
4.68698
0.00467154
4.689
0.00488327
4.69124
0.005092
4.6937
0.00529803
4.69637
0.0055014
4.69926
0.00570246
4.70237
0.00590111
4.7057
0.00609791
4.70924
0.00629355
4.71301
0.00648774
4.71699
0.00668077
4.72119
0.00687309
4.72561
0.00706491
4.73024
0.00725678
4.7351
0.00744883
4.74017
0.00764306
4.74546
0.00783425
0.00803153
4.75095
4.71566
4.71158
4.70774
4.70413
4.70076
4.69762
4.69472
4.69206
4.68964
4.68745
4.68549
4.68377
4.68228
4.68102
4.68
4.67921
4.67865
4.67831
4.67821
4.67833
4.67869
4.67927
4.68008
4.68111
4.68237
4.68385
4.68556
4.68749
4.68964
4.69202
4.69463
4.69745
4.7005
4.70377
4.70726
4.71098
4.71492
4.71909
4.72348
4.7281
4.73295
4.73802
4.74333
4.74885
4.92933
-0.0741626
0.108232
4.89804
-0.0840885
0.115386
4.87151
-0.0867747
0.113301
4.85016
-0.0833298
0.104676
4.83374
-0.0773956
0.0938215
4.82152
-0.0705358
0.0827543
4.81258
-0.0632006
0.0721421
4.80614
-0.055973
0.0624153
4.80153
-0.0492495
0.0538506
4.79825
-0.043204
0.0464865
4.79594
-0.0378885
0.0401973
4.79435
-0.0332532
0.0348483
4.79321
-0.0291816
0.0303201
4.79239
-0.0256667
0.0264886
4.79181
-0.0226839
0.0232608
4.79141
-0.0201399
0.0205454
4.79112
-0.0179698
0.0182551
4.79092
-0.0161223
0.0163229
4.79078
-0.0145582
0.0147008
4.79067
-0.0132475
0.0133492
4.7906
-0.0121634
0.0122336
4.79056
-0.0112842
0.0113312
4.79053
-0.0105946
0.0106183
4.79053
-0.0100761
0.0100848
4.79054
-0.00974421
0.00972809
-0.00948302
0.00951998
4.90747
-0.0468905
4.88164
-0.0582611
4.85981
-0.0649474
4.84174
-0.0652586
4.82711
-0.0627588
4.81555
-0.0589791
4.80669
-0.0543378
4.79998
-0.0492623
4.79495
-0.0442284
4.7912
-0.0394502
4.78836
-0.0350427
4.78618
-0.0310746
4.7846
-0.0276029
4.78347
-0.0245406
4.78261
-0.0218195
4.78193
-0.0194653
4.7814
-0.0174373
4.78097
-0.0156957
4.78063
-0.014213
4.78035
-0.012964
4.78011
-0.0119274
4.77991
-0.0110845
4.77974
-0.0104254
4.77959
-0.00993053
4.77948
-0.00963042
-0.00941209
4.88682
-0.0283595
4.86881
-0.040253
4.85185
-0.0479925
4.83734
-0.0507469
4.82513
-0.0505443
4.81486
-0.0487082
4.8065
-0.0459844
4.79981
-0.0425687
4.79459
-0.0390107
4.7905
-0.0353533
4.78729
-0.0318377
4.78478
-0.0285652
4.78276
-0.0255844
4.78115
-0.0229253
4.77989
-0.0205591
4.77887
-0.018448
4.77803
-0.0165976
4.77733
-0.0149964
4.77674
-0.0136231
4.77623
-0.0124585
4.77579
-0.0114874
4.77541
-0.0106955
4.77506
-0.0100763
4.77474
-0.00961802
4.77443
-0.00931718
-0.0091418
4.86668
-0.0155283
4.85316
-0.0267297
4.83937
-0.0342006
4.8273
-0.0386819
4.81676
-0.0399982
4.80762
-0.0395753
4.79982
-0.0381833
4.79332
-0.0360714
4.78803
-0.0337127
4.78374
-0.0310626
4.78026
-0.028366
4.77746
-0.025762
4.77519
-0.023311
4.77331
-0.0210528
4.77176
-0.0190046
4.77047
-0.0171604
4.76939
-0.0155191
4.76848
-0.0140797
4.76769
-0.0128337
4.767
-0.0117695
4.76639
-0.0108767
4.76584
-0.0101433
4.76533
-0.00956902
4.76486
-0.0091459
4.7644
-0.00885705
-0.00867634
4.84785
-0.00679526
4.83793
-0.0168081
4.82755
-0.0238221
4.8176
-0.0287367
4.80872
-0.0311157
4.80091
-0.0317648
4.79408
-0.0313555
4.78824
-0.0302306
4.78324
-0.0287068
4.77904
-0.0268701
4.77555
-0.0248712
4.77265
-0.0228659
4.77024
-0.020902
4.76822
-0.0190268
4.7665
-0.0172894
4.76504
-0.0157013
4.76379
-0.0142687
4.76271
-0.0129967
4.76176
-0.0118849
4.76092
-0.0109288
4.76017
-0.0101247
4.75948
-0.0094511
4.75883
-0.0089236
4.75821
-0.00852768
4.75766
-0.00830694
-0.00819504
4.83063
-0.000713754
4.82324
-0.00941625
4.81547
-0.0160498
4.80743
-0.0206969
4.7999
-0.0235903
4.79313
-0.0249955
4.78711
-0.025334
4.78179
-0.0249063
4.77709
-0.0240056
4.773
-0.0227845
4.7695
-0.0213664
4.76652
-0.0198872
4.76397
-0.018356
4.76179
-0.0168454
4.75991
-0.0154095
4.75828
-0.0140714
4.75686
-0.0128462
4.75561
-0.0117447
4.75449
-0.0107722
4.75349
-0.00992869
4.75258
-0.00921479
4.75174
-0.00861281
4.75096
-0.00813897
4.75022
-0.00778463
4.74947
-0.00755922
-0.00739722
4.81527
0.00335556
4.80996
-0.00411005
4.80392
-0.0100029
4.79759
-0.0143709
4.79135
-0.0173485
4.78552
-0.0191649
4.78019
-0.0200093
4.7754
-0.0201125
4.77112
-0.0197281
4.76733
-0.0189951
4.76399
-0.0180257
4.76106
-0.0169554
4.7585
-0.0157915
4.75626
-0.0146118
4.75431
-0.0134585
4.7526
-0.0123589
4.75109
-0.0113317
4.74974
-0.0103945
4.74852
-0.00955784
4.74742
-0.00882357
4.7464
-0.00819554
4.74545
-0.0076697
4.74457
-0.00725429
4.74373
-0.0069451
4.74295
-0.00678353
-0.00672102
4.80183
0.00615601
4.79788
-0.000156583
4.79324
-0.00536186
4.78823
-0.00936774
4.78315
-0.0122679
4.7782
-0.0142085
4.77352
-0.0153339
4.76922
-0.0158133
4.76532
-0.0158221
4.76179
-0.0154723
4.75862
-0.0148502
4.75575
-0.0140857
4.75319
-0.0132363
4.75092
-0.0123423
4.74891
-0.0114393
4.7471
-0.0105584
4.74549
-0.00971711
4.74403
-0.00893821
4.74271
-0.00823352
4.74149
-0.00760832
4.74037
-0.00706983
4.73932
-0.00662113
4.73833
-0.00625989
4.73737
-0.00598985
4.7364
-0.00581296
-0.00569964
4.79002
0.00795178
4.78721
0.00265927
4.78364
-0.00179604
4.77964
-0.00536367
4.77544
-0.00807088
4.77123
-0.0100021
4.76716
-0.0112618
4.76331
-0.0119659
4.75973
-0.0122357
4.75643
-0.0121718
4.75342
-0.0118439
4.75068
-0.0113502
4.74821
-0.0107649
4.74599
-0.0101154
4.74397
-0.00942184
4.74213
-0.00871691
4.74045
-0.00804391
4.73893
-0.00741457
4.73753
-0.00683767
4.73625
-0.00632024
4.73505
-0.00587009
4.73392
-0.00549333
4.73285
-0.00518968
4.73182
-0.00496334
4.73085
-0.00484453
-0.00481954
4.78003
0.0091376
4.77793
0.00476005
4.77517
0.000961587
4.77197
-0.00215473
4.7685
-0.0046027
4.76493
-0.00643538
4.76139
-0.00772158
4.75797
-0.00854052
4.75471
-0.00897751
4.75165
-0.00911184
4.74881
-0.00901083
4.74621
-0.0087429
4.74381
-0.00836555
4.7416
-0.00791244
4.73959
-0.00740578
4.73773
-0.00685939
4.73602
-0.00633294
4.73445
-0.00583983
4.73299
-0.00538019
4.73163
-0.00496246
4.73036
-0.00459588
4.72915
-0.00428592
4.728
-0.0040374
4.72689
-0.00385381
4.72578
-0.00373653
-0.00366625
4.77142
0.00982368
4.76994
0.00624903
4.76779
0.0031067
4.76519
0.000450593
4.76229
-0.00170375
4.75923
-0.00337951
4.75613
-0.00461942
4.75306
-0.00547693
4.7501
-0.00601155
4.74727
-0.00628263
4.7446
-0.0063442
4.74211
-0.00624647
4.73978
-0.00603442
4.7376
-0.00574107
4.7356
-0.00539763
4.73375
-0.00501102
4.73203
-0.00461959
4.73044
-0.00425058
4.72896
-0.00389549
4.72756
-0.0035662
4.72624
-0.00327515
4.72499
-0.00302848
4.72378
-0.00283207
4.72262
-0.0026895
4.72149
-0.00261405
-0.00259614
4.7644
0.0102352
4.76327
0.00738222
4.76156
0.0048108
4.75942
0.00259646
4.75696
0.000753653
4.75431
-0.00072789
4.75156
-0.00187286
4.7488
-0.0027151
4.74608
-0.00329381
4.74345
-0.00365056
4.74093
-0.00382596
4.73854
-0.0038583
4.73629
-0.0037826
4.73418
-0.00362773
4.7322
-0.00341718
4.73036
-0.00316769
4.72864
-0.00290141
4.72703
-0.00264075
4.72551
-0.00238207
4.72408
-0.00213634
4.72273
-0.00191704
4.72143
-0.00173057
4.72018
-0.00158204
4.71896
-0.00147553
4.71776
-0.00141105
-0.00137678
4.75861
0.0104124
4.75779
0.00820665
4.75641
0.00618878
4.75461
0.00439999
4.75249
0.00286909
4.75016
0.00159947
4.74771
0.000578707
4.74521
-0.000212181
4.74271
-0.00079607
4.74026
-0.00119988
4.73789
-0.00145235
4.73561
-0.0015816
4.73344
-0.00161385
4.73139
-0.00157193
4.72944
-0.0014754
4.72762
-0.00134126
4.7259
-0.00118258
4.72427
-0.00101508
4.72274
-0.000844623
4.72128
-0.000679178
4.71989
-0.000529219
4.71856
-0.000400787
4.71728
-0.000298454
4.71603
-0.000224794
4.7148
-0.000183633
-0.000167497
4.75415
0.0104864
4.75347
0.00888688
4.75229
0.00737087
4.7507
0.00598668
4.74881
0.00476539
4.74669
0.00371528
4.74444
0.00283149
4.74212
0.00211024
4.73978
0.0015432
4.73746
0.00111569
4.7352
0.000809307
4.73301
0.000604833
4.73091
0.000483719
4.72891
0.000429108
4.72701
0.00042534
4.72521
0.000459139
4.72351
0.000521525
4.72189
0.000601079
4.72036
0.000689314
4.7189
0.000779687
4.71751
0.000865069
4.71616
0.000939958
4.71487
0.00100025
4.7136
0.00104389
4.71235
0.00106712
0.00107567
4.75096
0.0104759
4.75041
0.00944222
4.74939
0.00838978
4.74798
0.00739161
4.74627
0.00647617
4.74433
0.00565421
4.74225
0.00491622
4.74008
0.00427885
4.73788
0.00374689
4.73568
0.00331618
4.73351
0.00297709
4.73139
0.00271788
4.72935
0.0025265
4.72739
0.00239166
4.72551
0.00230226
4.72372
0.00224945
4.72202
0.00222567
4.7204
0.00222286
4.71885
0.00223439
4.71738
0.00225501
4.71596
0.00227957
4.7146
0.00230353
4.71327
0.00232361
4.71198
0.00233763
4.7107
0.00234598
0.00235094
4.74877
4.7482
4.74718
4.7458
4.74414
4.74228
4.74029
4.73823
4.73613
4.73403
4.73196
4.72993
4.72797
4.72607
4.72425
4.72251
4.72085
4.71926
4.71775
4.71629
4.71489
4.71354
4.71222
4.71093
4.70966
4.68721
0.00474498
-0.00445803
4.68643
0.0142228
-0.013442
4.68521
0.0242914
-0.0230716
4.6837
0.0354092
-0.0338981
4.68216
0.0480472
-0.0465036
4.68104
0.0627375
-0.0616234
4.68109
0.0800345
-0.0800842
4.6836
0.100651
-0.103161
4.69012
0.124845
-0.131361
0.154676
4.70136
-0.165919
4.68742
0.00482435
4.68719
0.014457
4.6869
0.0245768
4.68675
0.0355561
4.68705
0.0477468
4.68829
0.0614993
4.6912
0.077128
4.69694
0.0949063
4.70717
0.114614
0.135842
4.72601
4.68757
0.00475557
4.68778
0.0142445
4.68824
0.0241152
4.68915
0.0346477
4.69082
0.0460826
4.69369
0.0586241
4.69841
0.0724051
4.70587
0.0874497
4.71696
0.103524
0.120291
4.73251
4.68769
0.00456794
4.68824
0.0136894
4.68927
0.023087
4.69096
0.032962
4.69357
0.0434654
4.6975
0.0546944
4.70325
0.0666601
4.71144
0.0792535
4.72288
0.0920935
0.104406
4.73876
4.68777
0.00429767
4.68858
0.012883
4.69001
0.0216556
4.69222
0.0307477
4.69545
0.0402417
4.69998
0.0501605
4.7062
0.0604437
4.71454
0.0709146
4.72538
0.0812477
0.0908207
4.73897
4.68783
0.00397142
4.6888
0.0119077
4.6905
0.01996
4.69304
0.0282055
4.6966
0.036677
4.70141
0.0453509
4.70773
0.0541294
4.71583
0.062815
4.72598
0.0710914
0.0783049
4.7385
4.68786
0.00361101
4.68894
0.0108291
4.69079
0.0181093
4.69351
0.0254882
4.69722
0.0329649
4.70208
0.0404889
4.70826
0.0479482
4.71593
0.0551488
4.72518
0.0618385
0.0675036
4.73598
4.68788
0.00323293
4.68901
0.00969676
4.69094
0.0161848
4.69372
0.0227057
4.69744
0.0292379
4.70222
0.0357182
4.70813
0.0420338
4.71527
0.0480082
4.72368
0.053424
0.0578174
4.73337
4.68788
0.00284871
4.68904
0.00854502
4.69098
0.0142418
4.69375
0.0199308
4.69741
0.0255789
4.70201
0.0311195
4.7076
0.0364475
4.7142
0.0414087
4.72178
0.0458381
0.0493839
4.73022
4.68788
0.00246545
4.68903
0.0073954
4.69096
0.0123145
4.69368
0.0172062
4.69723
0.0220329
4.70162
0.02673
4.70686
0.031204
4.71295
0.0353254
4.71983
0.0389533
0.0417727
4.72744
4.68788
0.00208647
4.68902
0.00625821
4.69091
0.0104187
4.69357
0.0145503
4.69699
0.018615
4.70116
0.0225535
4.70608
0.026286
4.7117
0.0297056
4.71793
0.0327184
0.0351191
4.72459
4.68787
0.00171186
4.689
0.00513391
4.69086
0.00855655
4.69345
0.0119637
4.69674
0.015318
4.70073
0.0185681
4.70537
0.0216481
4.7106
0.0244739
4.71637
0.0269488
0.028848
4.72264
4.68787
0.00133843
4.689
0.00401085
4.69084
0.00671694
4.69336
0.00943556
4.69655
0.0121282
4.70037
0.0147514
4.70477
0.0172533
4.70967
0.0195689
4.71495
0.0216665
0.0234907
4.72031
4.68788
0.000960229
4.68902
0.00286962
4.69087
0.00486961
4.69338
0.00691849
4.69653
0.00898201
4.70026
0.011024
4.70451
0.0130007
4.70921
0.0148659
4.71434
0.0165432
0.017866
4.71996
4.68792
0.000535483
4.68908
0.00171217
4.69092
0.00303603
4.6934
0.00443703
4.69647
0.0059047
4.7001
0.00739957
4.70421
0.0088877
4.70874
0.0103389
4.7135
0.0117835
0.0133568
4.71801
4.68814
4.68946
4.69145
4.69406
4.69723
4.7009
4.70503
4.70957
4.71452
4.71998
4.70109
-0.0412447
0.0415186
4.70168
-0.0362062
0.0356103
4.70322
-0.0311884
0.0296494
4.70574
-0.0261591
0.023645
4.70927
-0.0211515
0.0176231
4.71385
-0.016202
0.011618
4.71952
-0.0113285
0.00566367
4.72627
-0.00654585
-0.00020836
4.7341
-0.00187166
-0.00596176
4.74299
0.0026737
-0.0115564
4.75287
0.00707028
-0.0169535
4.76368
0.0113007
-0.0221147
4.77534
0.0153456
-0.0270002
4.78772
0.0191876
-0.0315726
4.80071
0.022812
-0.0357981
4.81415
0.026207
-0.0396483
4.82789
0.0293642
-0.0431014
4.84175
0.0322783
-0.046143
4.85557
0.034948
-0.048768
4.86918
0.0373756
-0.05098
4.8824
0.0395669
-0.0527918
4.89509
0.0415313
-0.0542252
4.90712
0.0432769
-0.055306
4.91837
0.0448256
-0.0560752
4.92876
0.0461478
-0.0565366
4.93824
0.0473493
-0.0568244
4.94661
0.048616
-0.0569863
4.95384
0.0497973
-0.0570331
4.96
0.0508078
-0.0569643
4.9651
0.0517479
-0.0568492
4.96918
0.052659
-0.0567343
4.97227
0.0535694
-0.0566618
4.97444
0.0545026
-0.0566692
4.97575
0.0554786
-0.0567894
4.97628
0.0565154
-0.0570514
4.97613
0.0576295
-0.05748
4.9754
0.0588335
-0.0580963
4.97417
0.0601461
-0.058916
4.97257
0.0615473
-0.0599552
4.97079
0.0629695
-0.0611854
4.96892
0.0645084
-0.0626412
4.96704
0.0662044
-0.0643182
4.96526
0.0680384
-0.0662648
0.0700214
4.96344
-0.0681994
4.72617
-0.0414078
4.72694
-0.0369765
4.72833
-0.0325732
4.73037
-0.0282066
4.73312
-0.0238984
4.73656
-0.0196437
4.74068
-0.0154513
4.74547
-0.0113353
4.75091
-0.0073073
4.75696
-0.00337819
4.76359
0.000440435
4.77075
0.00413761
4.7784
0.0077032
4.78646
0.0111284
4.79486
0.0144057
4.80354
0.0175295
4.81241
0.0204957
4.82138
0.0233025
4.83038
0.0259501
4.83932
0.0284415
4.8481
0.0307809
4.85667
0.0329651
4.86494
0.0350067
4.87285
0.036913
4.88029
0.0387074
4.88732
0.0403224
4.89393
0.0420078
4.9001
0.0436197
4.90571
0.0451998
4.91078
0.0466845
4.9153
0.0481355
4.91929
0.049577
4.92277
0.0510251
4.92575
0.0524944
4.92827
0.0539982
4.93035
0.0555489
4.93203
0.0571554
4.93334
0.0588362
4.93432
0.0605627
4.93495
0.0623387
4.93527
0.0641973
4.93529
0.0661812
4.93514
0.0681838
0.0703937
4.93477
4.73164
-0.0405317
4.73128
-0.0366219
4.73148
-0.0327724
4.73224
-0.0289659
4.73355
-0.0252059
4.7354
-0.0215011
4.73781
-0.0178557
4.74075
-0.0142746
4.7442
-0.0107639
4.74816
-0.00733002
4.75258
-0.00397912
4.75743
-0.000715875
4.76268
0.0024552
4.76828
0.00553008
4.77418
0.00850542
4.78033
0.0113788
4.78667
0.0141488
4.79316
0.0168152
4.79973
0.0193788
4.80633
0.0218417
4.81291
0.0242065
4.8194
0.0264674
4.82578
0.0286317