/*--------------------------------*- C++ -*----------------------------------*\
| =========                 |                                                 |
| \\      /  F ield         | OpenFOAM: The Open Source CFD Toolbox           |
|  \\    /   O peration     | Version:  2412                                  |
|   \\  /    A nd           | Website:  www.openfoam.com                      |
|    \\/     M anipulation  |                                                 |
\*---------------------------------------------------------------------------*/
FoamFile
{
    version     2.0;
    format      ascii;
    arch        "LSB;label=32;scalar=64";
    class       volVectorField;
    location    "1500";
    object      U;
}
// * * * * * * * * * * * * * * * * * * * * * * * * * * * * * * * * * * * * * //

dimensions      [0 1 -1 0 0 0 0];

internalField   nonuniform List<vector> 
8896
(
(4.99989 0.00459268 0)
(4.99942 0.0138858 0)
(4.99836 0.0238067 0)
(4.99686 0.0348605 0)
(4.99516 0.0475745 0)
(4.99366 0.0625909 0)
(4.99291 0.0805882 0)
(4.99402 0.102638 0)
(4.99826 0.12876 0)
(5.0079 0.162211 0)
(4.99998 0.00476912 0)
(4.99984 0.0144093 0)
(4.99955 0.0245975 0)
(4.99928 0.0357487 0)
(4.99928 0.0482762 0)
(5 0.0626184 0)
(5.00201 0.0792129 0)
(5.00647 0.0984992 0)
(5.01429 0.120543 0)
(5.02978 0.145777 0)
(5.00002 0.00477772 0)
(5.00015 0.0144085 0)
(5.00049 0.0244709 0)
(5.00118 0.0352917 0)
(5.00248 0.0471664 0)
(5.0048 0.0603679 0)
(5.00867 0.0751092 0)
(5.01501 0.0915166 0)
(5.02443 0.109355 0)
(5.03913 0.128108 0)
(5.00007 0.0046527 0)
(5.0004 0.0140111 0)
(5.00122 0.023695 0)
(5.00263 0.0339464 0)
(5.00486 0.0449582 0)
(5.00827 0.0568746 0)
(5.01328 0.0697569 0)
(5.02063 0.083544 0)
(5.03068 0.0978969 0)
(5.0457 0.112218 0)
(5.0001 0.00442671 0)
(5.00058 0.0133177 0)
(5.00174 0.0224386 0)
(5.00366 0.0319533 0)
(5.00651 0.0419744 0)
(5.01058 0.0525558 0)
(5.0162 0.0636642 0)
(5.02389 0.0751442 0)
(5.03387 0.0866355 0)
(5.0473 0.0974077 0)
(5.00013 0.00413077 0)
(5.0007 0.0124169 0)
(5.00208 0.0208525 0)
(5.00434 0.029539 0)
(5.00756 0.0385302 0)
(5.01197 0.0478206 0)
(5.01782 0.0573251 0)
(5.02547 0.0668476 0)
(5.03501 0.0760577 0)
(5.04745 0.0843055 0)
(5.00014 0.00378925 0)
(5.00077 0.0113819 0)
(5.00229 0.0190615 0)
(5.00473 0.0268818 0)
(5.00814 0.0348552 0)
(5.01267 0.0429408 0)
(5.0185 0.0510291 0)
(5.02587 0.0589192 0)
(5.03478 0.0663248 0)
(5.04576 0.0726556 0)
(5.00015 0.00342131 0)
(5.00081 0.0102705 0)
(5.0024 0.0171608 0)
(5.00492 0.0241122 0)
(5.00838 0.0311103 0)
(5.01289 0.0380955 0)
(5.01855 0.0449524 0)
(5.02551 0.0514925 0)
(5.03373 0.0574794 0)
(5.04361 0.0624235 0)
(5.00015 0.00304093 0)
(5.00082 0.00912429 0)
(5.00243 0.0152182 0)
(5.00497 0.0213205 0)
(5.0084 0.0274013 0)
(5.01279 0.0333938 0)
(5.01819 0.0391871 0)
(5.0247 0.0446144 0)
(5.03223 0.0494845 0)
(5.04096 0.0533912 0)
(5.00015 0.00265773 0)
(5.00082 0.00797113 0)
(5.00242 0.0132778 0)
(5.00493 0.0185632 0)
(5.00828 0.0237904 0)
(5.0125 0.0288923 0)
(5.01763 0.0337683 0)
(5.02368 0.0382753 0)
(5.03057 0.0422613 0)
(5.03846 0.0453927 0)
(5.00015 0.00227678 0)
(5.00081 0.00682677 0)
(5.00239 0.0113643 0)
(5.00485 0.0158698 0)
(5.0081 0.0203046 0)
(5.01215 0.024607 0)
(5.017 0.0286906 0)
(5.02263 0.0324375 0)
(5.02895 0.0357299 0)
(5.03595 0.0383125 0)
(5.00014 0.00189973 0)
(5.0008 0.00569645 0)
(5.00236 0.00948664 0)
(5.00476 0.0132513 0)
(5.00792 0.0169506 0)
(5.01181 0.020527 0)
(5.01641 0.0239066 0)
(5.02169 0.026994 0)
(5.02755 0.0296968 0)
(5.03408 0.0317959 0)
(5.00014 0.00152489 0)
(5.0008 0.00457497 0)
(5.00235 0.00763516 0)
(5.00471 0.0106949 0)
(5.00779 0.013722 0)
(5.01153 0.0166686 0)
(5.01592 0.019475 0)
(5.02089 0.0220656 0)
(5.02636 0.0243734 0)
(5.03211 0.0262648 0)
(5.00014 0.0011467 0)
(5.00081 0.0034572 0)
(5.00238 0.00580119 0)
(5.00475 0.00814976 0)
(5.00779 0.0104724 0)
(5.01147 0.0127347 0)
(5.01573 0.0148921 0)
(5.02054 0.0168922 0)
(5.02577 0.0186859 0)
(5.03158 0.0201529 0)
(5.00016 0.000740758 0)
(5.00086 0.00231212 0)
(5.00245 0.00404774 0)
(5.00479 0.00588076 0)
(5.00778 0.00776141 0)
(5.01136 0.00965187 0)
(5.0155 0.011513 0)
(5.02011 0.0133042 0)
(5.02513 0.0150015 0)
(5.03012 0.0165855 0)
(5.00023 0.000262957 0)
(5.00115 0.00086246 0)
(5.00295 0.0016034 0)
(5.00545 0.00244498 0)
(5.00855 0.00339825 0)
(5.0122 0.00441238 0)
(5.01637 0.00545403 0)
(5.02102 0.00649852 0)
(5.02605 0.0075487 0)
(5.03169 0.00872294 0)
(5.01677 0.180632 0)
(5.02277 0.186986 7.52668e-21)
(5.02967 0.193457 8.16519e-23)
(5.03692 0.199954 -1.95846e-23)
(5.04485 0.206362 -3.62986e-21)
(5.05372 0.212579 -1.16626e-22)
(5.06355 0.218494 1.16633e-22)
(5.07428 0.223991 0)
(5.08591 0.228964 1.54886e-21)
(5.09844 0.233309 6.83326e-22)
(5.11182 0.236918 -6.17919e-22)
(5.12599 0.239695 1.16374e-22)
(5.14086 0.241515 -3.5515e-21)
(5.15633 0.242267 0)
(5.17225 0.241856 2.58277e-22)
(5.18849 0.240203 0)
(5.20487 0.237247 -2.26146e-21)
(5.22121 0.232944 -1.97801e-21)
(5.23733 0.227273 1.76937e-22)
(5.25302 0.220232 -1.76359e-22)
(5.26812 0.211838 1.44966e-21)
(5.28245 0.202136 5.30678e-23)
(5.29584 0.191129 4.30346e-22)
(5.30816 0.179005 1.81784e-21)
(5.3193 0.1652 -2.6981e-22)
(5.32918 0.151579 2.69232e-22)
(5.33771 0.138088 -1.00233e-20)
(5.34473 0.124076 5.76791e-22)
(5.35023 0.108892 1.12157e-20)
(5.35428 0.0932583 -1.07614e-20)
(5.35692 0.0774452 -1.21856e-21)
(5.3582 0.0616176 2.15687e-20)
(5.35815 0.0459128 1.14482e-20)
(5.35685 0.0304538 2.21104e-20)
(5.35439 0.0153516 -3.99669e-20)
(5.35086 0.000705341 -2.14585e-20)
(5.34637 -0.0133944 -1.15482e-21)
(5.34101 -0.0268853 -1.61626e-20)
(5.33492 -0.039653 5.40019e-22)
(5.32824 -0.0522753 -1.74895e-23)
(5.32115 -0.0641791 -1.82854e-23)
(5.31375 -0.0750975 -2.61612e-22)
(5.30613 -0.0852491 1.72622e-20)
(5.29832 -0.0944316 0)
(5.04325 0.161433 0)
(5.04989 0.167225 -3.28544e-21)
(5.05686 0.172869 -2.76258e-21)
(5.06345 0.178327 0)
(5.07087 0.18357 3.50063e-21)
(5.07882 0.188538 -2.1393e-23)
(5.08722 0.19316 -2.24501e-23)
(5.09607 0.197367 -2.01385e-22)
(5.10537 0.201088 1.22337e-21)
(5.11511 0.204247 -3.86304e-23)
(5.12522 0.206763 0)
(5.13568 0.208559 0)
(5.14642 0.209569 1.8152e-21)
(5.15737 0.209735 0)
(5.16848 0.209008 5.58243e-21)
(5.17966 0.207349 0)
(5.19081 0.204735 5.20517e-22)
(5.20186 0.201155 8.95688e-23)
(5.2127 0.196613 -1.54656e-22)
(5.22325 0.191129 -9.88364e-22)
(5.2334 0.184739 -1.47137e-21)
(5.24307 0.177489 -1.19562e-17)
(5.25218 0.169456 1.19303e-17)
(5.26066 0.160657 -1.78752e-21)
(5.26841 0.151409 0)
(5.27538 0.140805 0)
(5.28159 0.130547 4.61102e-21)
(5.28708 0.11993 -4.65673e-22)
(5.29177 0.108887 0)
(5.29556 0.0976533 0)
(5.29845 0.0863518 7.06658e-21)
(5.30048 0.0750772 -8.46046e-21)
(5.30167 0.0639161 7.16956e-21)
(5.30203 0.0529482 -5.03398e-22)
(5.30158 0.0422441 1.7215e-20)
(5.30037 0.0318711 4.99865e-22)
(5.29842 0.021867 -1.41117e-20)
(5.29578 0.0123532 1.73564e-20)
(5.2925 0.00304722 -4.81384e-22)
(5.28858 -0.0060425 1.39313e-20)
(5.28403 -0.0146125 -9.10452e-22)
(5.27887 -0.022569 -1.23957e-20)
(5.27317 -0.0298841 -1.24815e-20)
(5.26705 -0.0367301 0)
(5.04993 0.138874 -2.31633e-23)
(5.05522 0.142366 3.34417e-21)
(5.0607 0.145555 2.78474e-21)
(5.06627 0.148495 -6.39376e-23)
(5.07216 0.151158 0)
(5.07844 0.153526 -1.71298e-23)
(5.08508 0.155577 1.71363e-23)
(5.09202 0.157282 -5.4994e-22)
(5.09926 0.158605 -2.09562e-21)
(5.10679 0.159511 -9.06604e-22)
(5.11458 0.159967 -1.19389e-21)
(5.12259 0.159947 9.77649e-23)
(5.13078 0.159429 2.10032e-23)
(5.13911 0.158389 1.95833e-21)
(5.14752 0.156808 -2.70265e-21)
(5.15597 0.154672 1.33391e-21)
(5.16438 0.151973 4.65715e-22)
(5.17271 0.148707 1.73327e-21)
(5.18088 0.144878 0)
(5.18884 0.140499 1.15203e-21)
(5.19653 0.135581 -4.71598e-22)
(5.20388 0.130057 1.76434e-17)
(5.21085 0.123976 -1.76117e-17)
(5.21737 0.117392 0)
(5.22342 0.110206 0)
(5.22895 0.102725 0)
(5.2339 0.0955021 0)
(5.2383 0.0880028 2.71272e-21)
(5.24211 0.0806769 2.39327e-21)
(5.2453 0.0727094 3.80678e-22)
(5.24787 0.0645211 -1.28766e-20)
(5.24983 0.0562479 6.19382e-21)
(5.2512 0.0479598 -7.63633e-21)
(5.25198 0.0397119 5.86332e-21)
(5.2522 0.0315536 5.86716e-21)
(5.25189 0.0235315 1.17055e-20)
(5.25109 0.0156873 2.60178e-21)
(5.24981 0.0080647 0)
(5.24811 0.000688954 1.14189e-20)
(5.246 -0.00640854 -1.35818e-20)
(5.24348 -0.0132529 3.67017e-22)
(5.24061 -0.0195712 1.27527e-20)
(5.23744 -0.0263438 1.6678e-21)
(5.23412 -0.0317281 8.74191e-23)
(5.05649 0.120412 1.64098e-21)
(5.06144 0.123081 0)
(5.06642 0.125528 2.85947e-23)
(5.07142 0.127793 -1.30911e-23)
(5.07665 0.129868 -1.72763e-23)
(5.08213 0.131729 1.44288e-23)
(5.08781 0.133351 -7.52985e-22)
(5.09366 0.134708 7.79035e-22)
(5.09965 0.135777 1.2676e-21)
(5.10578 0.136534 8.4778e-22)
(5.11202 0.136957 1.19368e-21)
(5.11835 0.137024 1.0665e-22)
(5.12474 0.136715 -1.06587e-22)
(5.13115 0.136012 -1.94286e-21)
(5.13756 0.1349 -1.38937e-22)
(5.14393 0.133371 -1.33848e-21)
(5.15023 0.13142 2.78801e-21)
(5.15643 0.129045 1.41151e-21)
(5.16249 0.126251 1.083e-22)
(5.16837 0.123045 7.01781e-22)
(5.17405 0.119441 5.09298e-22)
(5.17949 0.115458 1.56133e-17)
(5.18463 0.11112 -1.55913e-17)
(5.18946 0.106442 5.29641e-22)
(5.19392 0.101495 -1.4535e-22)
(5.19798 0.0961369 1.21074e-21)
(5.20166 0.0904499 -1.88635e-21)
(5.205 0.0849312 -3.04019e-21)
(5.208 0.0791043 -2.47328e-21)
(5.21065 0.0730933 4.37169e-21)
(5.21286 0.0669764 5.44776e-21)
(5.21464 0.0607994 -5.51061e-21)
(5.216 0.0545999 0)
(5.21695 0.0484125 -5.90654e-21)
(5.2175 0.04227 -6.24849e-21)
(5.21765 0.0362027 -6.19056e-21)
(5.21742 0.0302385 1.89685e-21)
(5.21682 0.0244019 -9.78322e-21)
(5.21586 0.018716 -2.1211e-20)
(5.21456 0.0131952 -3.90207e-24)
(5.21293 0.00789019 -9.51326e-21)
(5.211 0.00269618 -3.20712e-22)
(5.20874 -0.00243677 1.0697e-20)
(5.20623 -0.00740208 9.04679e-21)
(5.05651 0.103278 -2.65606e-21)
(5.06054 0.105017 -1.2296e-23)
(5.0646 0.106516 3.81528e-22)
(5.06867 0.10783 0)
(5.07288 0.10896 -2.62381e-22)
(5.07725 0.10989 -5.97074e-22)
(5.08175 0.110606 2.43348e-22)
(5.08635 0.111095 0)
(5.09104 0.111346 8.21859e-22)
(5.09582 0.111347 -6.6762e-23)
(5.10067 0.111089 6.67816e-23)
(5.10557 0.110563 -1.36629e-21)
(5.11051 0.109761 0)
(5.11546 0.108678 -1.16957e-22)
(5.1204 0.107314 1.16847e-22)
(5.12532 0.105665 -1.04508e-21)
(5.13018 0.103735 -2.27589e-23)
(5.13497 0.101524 -2.78996e-21)
(5.13966 0.0990371 0)
(5.14422 0.0962821 -1.23521e-22)
(5.14863 0.0932676 -2.47973e-23)
(5.15287 0.0900045 -6.32259e-18)
(5.15692 0.0865087 6.31473e-18)
(5.16076 0.0827911 -5.26414e-22)
(5.16437 0.0789006 -8.66104e-22)
(5.16773 0.0747428 -1.0727e-21)
(5.17082 0.0702698 1.95948e-21)
(5.17364 0.0657689 2.49444e-22)
(5.17618 0.0612478 0)
(5.17846 0.057033 -6.69458e-21)
(5.18043 0.0524533 0)
(5.18211 0.0477566 -4.05627e-21)
(5.18348 0.0430181 0)
(5.18457 0.0382705 2.77628e-22)
(5.18536 0.0335379 -2.77303e-22)
(5.18587 0.0288428 -9.12345e-21)
(5.1861 0.0242059 1.01699e-20)
(5.18608 0.0196471 1.37305e-20)
(5.1858 0.0151848 1.80698e-20)
(5.18528 0.0108363 0)
(5.18455 0.00662026 9.56683e-21)
(5.18361 0.00254496 7.96337e-21)
(5.18245 -0.00136428 1.33735e-22)
(5.18113 -0.00517686 -1.69845e-20)
(5.05585 0.0887611 1.01509e-21)
(5.05941 0.0900687 2.62083e-22)
(5.06297 0.0911922 -3.69444e-22)
(5.06652 0.0921745 2.73452e-22)
(5.07017 0.0930189 2.62557e-22)
(5.07393 0.0937158 5.97504e-22)
(5.07777 0.0942555 4.70469e-22)
(5.08167 0.0946298 -6.53802e-22)
(5.08562 0.0948311 -8.1244e-22)
(5.08962 0.0948517 -1.05733e-21)
(5.09364 0.0946845 1.14646e-21)
(5.09768 0.0943234 -1.80037e-23)
(5.10172 0.093763 1.53466e-21)
(5.10575 0.0929994 -1.11148e-22)
(5.10975 0.0920289 -1.01311e-23)
(5.1137 0.0908488 2.10941e-21)
(5.11759 0.0894587 1.52262e-23)
(5.12141 0.0878599 1.08126e-21)
(5.12513 0.0860553 -5.72668e-22)
(5.12875 0.0840494 -6.93413e-22)
(5.13224 0.0818484 2.20782e-23)
(5.1356 0.0794599 1.11973e-17)
(5.13881 0.076893 -1.11855e-17)
(5.14185 0.0741582 -3.844e-22)
(5.14472 0.0712669 8.70035e-22)
(5.1474 0.0682328 -7.69397e-22)
(5.14988 0.0650713 1.58207e-21)
(5.15213 0.0617976 0)
(5.15415 0.0584234 2.27522e-22)
(5.15597 0.0549598 1.98288e-21)
(5.15761 0.0514262 -4.66147e-22)
(5.15905 0.0478396 4.07421e-21)
(5.16026 0.0442164 2.37592e-22)
(5.16124 0.0405725 -3.55463e-21)
(5.162 0.0369233 -2.43118e-22)
(5.16255 0.0332837 8.3598e-22)
(5.16289 0.029668 0)
(5.16301 0.0260897 -4.18507e-21)
(5.16294 0.0225615 -8.3376e-21)
(5.16266 0.0190946 0)
(5.1622 0.0157008 0)
(5.16155 0.0123847 -8.25679e-21)
(5.16072 0.00917656 1.18235e-22)
(5.15975 0.00599639 7.92709e-21)
(5.05299 0.0759719 -2.1298e-22)
(5.05596 0.0768822 -2.86675e-22)
(5.05893 0.077626 -2.10032e-25)
(5.06189 0.0782437 -3.2925e-23)
(5.06491 0.0787398 3.32983e-22)
(5.06799 0.0791081 5.50099e-23)
(5.07113 0.0793422 -3.15198e-23)
(5.0743 0.0794373 1.4202e-21)
(5.07749 0.0793891 -7.81699e-22)
(5.0807 0.0791934 1.90341e-21)
(5.08393 0.0788466 -2.23104e-21)
(5.08716 0.0783459 1.29789e-21)
(5.09038 0.0776892 -1.35798e-21)
(5.09359 0.0768754 6.34823e-22)
(5.09677 0.075904 0)
(5.09991 0.0747762 -9.43136e-22)
(5.10301 0.0734941 -1.91291e-21)
(5.10605 0.0720601 0)
(5.10902 0.0704775 5.74732e-22)
(5.11191 0.0687507 0)
(5.11471 0.0668849 -1.86918e-23)
(5.11741 0.064886 9.46501e-18)
(5.12 0.0627609 -9.45635e-18)
(5.12247 0.0605172 3.82217e-22)
(5.12482 0.0581634 0)
(5.12703 0.0557082 7.72935e-22)
(5.12911 0.0531616 -1.40604e-21)
(5.13103 0.0505384 -1.83256e-22)
(5.13281 0.0478448 1.91739e-22)
(5.13443 0.0451223 -1.91535e-22)
(5.1359 0.042249 0)
(5.13721 0.0394713 -1.50823e-21)
(5.13835 0.0366246 -2.85053e-21)
(5.13933 0.033752 3.16407e-21)
(5.14016 0.0308721 -1.67484e-24)
(5.14082 0.0279971 6.90552e-22)
(5.14133 0.0251375 -2.93554e-21)
(5.14168 0.0223038 -2.08065e-22)
(5.14189 0.0195056 0)
(5.14195 0.0167523 0)
(5.14188 0.014053 -3.14232e-21)
(5.14168 0.0114145 -6.36065e-21)
(5.14134 0.00885192 -6.16957e-21)
(5.14091 0.00634162 5.10479e-23)
(5.05006 0.0649905 2.11387e-22)
(5.05266 0.0656857 2.63812e-23)
(5.05525 0.0662495 0)
(5.05783 0.0667144 -2.41159e-22)
(5.06045 0.067085 -3.56921e-22)
(5.06312 0.0673577 -5.55842e-22)
(5.06581 0.0675289 -6.9454e-24)
(5.06853 0.0675956 -1.35061e-21)
(5.07126 0.0675553 7.89405e-22)
(5.074 0.0674054 -9.6131e-22)
(5.07674 0.0671437 1.01355e-21)
(5.07948 0.0667685 7.05433e-23)
(5.0822 0.0662786 0)
(5.0849 0.0656732 -5.46319e-23)
(5.08757 0.064952 0)
(5.0902 0.0641153 7.69281e-22)
(5.09279 0.0631636 9.0136e-22)
(5.09532 0.0620983 0)
(5.0978 0.0609216 4.54277e-22)
(5.1002 0.0596362 3.24012e-23)
(5.10253 0.0582454 -2.81054e-22)
(5.10477 0.0567533 0)
(5.10693 0.0551645 -7.57417e-23)
(5.10899 0.0534842 0)
(5.11094 0.051718 0)
(5.11279 0.049872 -7.99275e-23)
(5.11453 0.0479528 2.43748e-22)
(5.11615 0.0459673 -1.40303e-21)
(5.11765 0.0439226 1.7101e-22)
(5.11903 0.0418257 -3.44919e-22)
(5.12028 0.0396843 -1.31474e-21)
(5.1214 0.0375053 3.02182e-21)
(5.12239 0.0352969 4.59525e-21)
(5.12326 0.0330671 -1.81047e-22)
(5.124 0.0308237 0)
(5.12462 0.028574 3.14268e-21)
(5.1251 0.0263256 3.34254e-21)
(5.12547 0.0240856 -1.8591e-22)
(5.12571 0.0218608 0)
(5.12583 0.0196577 1.86384e-22)
(5.12583 0.0174828 2.96893e-21)
(5.12572 0.0153399 9.07956e-21)
(5.12548 0.0132425 6.24665e-21)
(5.12517 0.0111606 0)
(5.04657 0.0553923 0)
(5.04878 0.0559179 2.05458e-22)
(5.05099 0.0563331 0)
(5.05319 0.0566653 0)
(5.05541 0.0569184 0)
(5.05767 0.0570902 -2.78047e-23)
(5.05994 0.057178 -6.7864e-22)
(5.06221 0.0571799 1.49307e-21)
(5.06449 0.0570942 5.36469e-23)
(5.06677 0.0569193 -8.94427e-22)
(5.06905 0.056654 -5.954e-23)
(5.07131 0.0562972 -6.08546e-22)
(5.07356 0.0558486 1.48073e-22)
(5.07578 0.0553079 -1.25263e-22)
(5.07799 0.0546754 0)
(5.08015 0.053952 -7.70881e-22)
(5.08228 0.0531389 9.90257e-23)
(5.08437 0.0522378 -1.51088e-22)
(5.08641 0.0512508 8.77631e-24)
(5.0884 0.0501804 2.43841e-22)
(5.09032 0.0490294 2.05967e-22)
(5.09219 0.0478011 1.48516e-23)
(5.09398 0.0464993 0)
(5.0957 0.0451279 3.29745e-23)
(5.09735 0.0436914 2.2354e-22)
(5.09891 0.0421944 -4.57407e-22)
(5.10039 0.0406418 4.70798e-22)
(5.10178 0.039039 6.90532e-22)
(5.10308 0.0373913 -9.79913e-22)
(5.10429 0.0357044 -1.48993e-22)
(5.10541 0.0339835 1.46701e-22)
(5.10643 0.0322352 -1.49258e-21)
(5.10735 0.0304651 6.14993e-24)
(5.10818 0.0286783 -1.60138e-22)
(5.10891 0.0268803 3.21531e-22)
(5.10954 0.0250769 -1.61386e-22)
(5.11008 0.0232738 -2.3302e-21)
(5.11052 0.0214763 -1.63471e-22)
(5.11088 0.0196897 2.5154e-21)
(5.11114 0.0179191 2.3558e-21)
(5.11131 0.0161696 -1.92828e-25)
(5.1114 0.0144452 -2.64229e-21)
(5.1114 0.0127533 -2.51656e-21)
(5.11135 0.0110856 0)
(5.0435 0.0469846 1.95628e-22)
(5.04547 0.0473966 -4.69402e-22)
(5.04742 0.0477196 -3.1798e-23)
(5.04937 0.0479765 2.28811e-23)
(5.05133 0.0481708 0)
(5.05331 0.0483013 5.49733e-22)
(5.0553 0.0483664 6.37557e-22)
(5.05729 0.0483652 -2.20329e-24)
(5.05928 0.0482967 -3.99785e-22)
(5.06126 0.04816 5.22179e-22)
(5.06324 0.0479546 -5.85734e-23)
(5.06521 0.0476798 4.69468e-22)
(5.06715 0.0473357 1.42338e-22)
(5.06908 0.0469223 -1.20637e-21)
(5.07098 0.0464398 5.44799e-22)
(5.07285 0.045889 0)
(5.07469 0.0452707 3.46777e-22)
(5.07648 0.0445861 3.63619e-22)
(5.07824 0.0438366 -6.02844e-22)
(5.07995 0.043024 8.73111e-24)
(5.0816 0.0421503 -4.01962e-23)
(5.0832 0.0412177 -1.726e-18)
(5.08475 0.0402288 1.72497e-18)
(5.08623 0.0391863 -1.13529e-22)
(5.08764 0.0380933 -2.57087e-22)
(5.08899 0.036953 5.28427e-22)
(5.09027 0.0357687 -9.02119e-22)
(5.09147 0.0345441 9.25702e-22)
(5.0926 0.0332829 1.26829e-21)
(5.09366 0.0319889 -1.3184e-21)
(5.09463 0.0306659 1.17072e-21)
(5.09553 0.0293181 -2.10897e-24)
(5.09634 0.0279494 -9.19201e-22)
(5.09708 0.0265638 -2.90638e-22)
(5.09773 0.0251654 2.93502e-22)
(5.0983 0.0237582 -1.47332e-22)
(5.09879 0.0223461 2.3521e-22)
(5.0992 0.020933 0)
(5.09953 0.0195226 -2.33538e-22)
(5.09978 0.0181184 -2.37789e-21)
(5.09996 0.016724 2.30158e-21)
(5.10006 0.0153419 -2.26194e-22)
(5.10007 0.013978 4.86401e-21)
(5.10003 0.0126233 -2.25961e-21)
(5.04037 0.0396472 6.49271e-23)
(5.04207 0.0400067 2.69783e-22)
(5.04377 0.040296 0)
(5.04547 0.0405317 0)
(5.04718 0.0407164 0)
(5.0489 0.0408494 0)
(5.05061 0.0409294 3.30009e-22)
(5.05233 0.0409554 -7.24311e-22)
(5.05404 0.0409267 -4.79108e-23)
(5.05575 0.0408426 4.89757e-22)
(5.05745 0.0407025 4.63218e-22)
(5.05913 0.0405061 0)
(5.06079 0.0402533 -5.28305e-22)
(5.06244 0.0399441 5.87998e-22)
(5.06406 0.0395789 -5.4732e-22)
(5.06566 0.0391582 -7.69914e-23)
(5.06723 0.0386826 -7.58543e-22)
(5.06876 0.0381531 -3.23663e-22)
(5.07026 0.0375708 1.08926e-23)
(5.07172 0.0369371 -1.52065e-22)
(5.07314 0.0362536 -1.24604e-23)
(5.07451 0.0355223 1.56177e-18)
(5.07584 0.034745 -1.56094e-18)
(5.07712 0.0339241 1.27052e-22)
(5.07835 0.0330618 0)
(5.07952 0.0321608 -5.75891e-23)
(5.08063 0.0312237 6.67675e-22)
(5.08169 0.0302533 -6.21047e-22)
(5.08269 0.0292525 1.22652e-22)
(5.08363 0.0282244 9.23658e-22)
(5.08451 0.0271719 1.26807e-22)
(5.08533 0.0260984 -1.26696e-22)
(5.08608 0.0250068 1.30282e-22)
(5.08677 0.0239003 -1.14366e-21)
(5.0874 0.0227822 1.33068e-22)
(5.08796 0.0216556 -1.16624e-21)
(5.08846 0.0205235 2.13764e-21)
(5.08889 0.0193893 1.35019e-22)
(5.08926 0.0182563 -2.2965e-21)
(5.08958 0.0171274 2.11543e-21)
(5.08983 0.016005 -1.86853e-22)
(5.09002 0.0148918 0)
(5.09015 0.0137915 -2.30847e-21)
(5.09024 0.0127014 1.79397e-22)
(5.03821 0.032859 -2.57956e-22)
(5.03978 0.0331331 0)
(5.04133 0.0333506 2.8351e-23)
(5.04286 0.0335271 -2.72446e-22)
(5.0444 0.0336648 0)
(5.04595 0.0337629 -4.02519e-23)
(5.04749 0.0338207 -3.34318e-22)
(5.04903 0.0338377 4.42563e-23)
(5.05056 0.0338134 4.49489e-22)
(5.05208 0.0337475 3.71875e-22)
(5.05359 0.0336395 -4.63709e-22)
(5.05508 0.0334893 -2.41282e-22)
(5.05656 0.0332969 2.73189e-22)
(5.05801 0.0330624 1.98628e-22)
(5.05944 0.0327859 -3.62999e-24)
(5.06085 0.032468 -2.2257e-22)
(5.06223 0.0321093 4.08508e-22)
(5.06358 0.0317107 -3.92498e-23)
(5.06489 0.0312731 1.35118e-22)
(5.06617 0.0307974 0)
(5.06742 0.0302847 1.18591e-23)
(5.06862 0.0297364 2.96719e-18)
(5.06978 0.0291539 -2.96592e-18)
(5.0709 0.0285386 -1.25824e-23)
(5.07198 0.0278923 0)
(5.07301 0.0272168 0)
(5.07399 0.0265139 1.10889e-22)
(5.07492 0.0257856 3.20481e-22)
(5.0758 0.025034 5.54651e-22)
(5.07662 0.0242611 2.14967e-22)
(5.0774 0.0234691 -1.87239e-24)
(5.07812 0.0226605 1.18779e-22)
(5.07878 0.0218374 5.88957e-22)
(5.07939 0.0210023 7.70501e-22)
(5.07995 0.0201573 -8.31707e-22)
(5.08045 0.0193045 1.03567e-21)
(5.08089 0.018446 1.26434e-22)
(5.08128 0.0175839 9.78996e-22)
(5.08162 0.0167198 -1.27037e-22)
(5.08189 0.0158558 -2.98058e-21)
(5.08212 0.0149934 -2.25478e-21)
(5.08229 0.0141341 9.93657e-22)
(5.0824 0.0132801 0)
(5.08246 0.0124311 2.13041e-21)
(5.03568 0.0273003 0)
(5.03706 0.0276134 0)
(5.03845 0.0278837 2.36639e-22)
(5.03984 0.0281186 2.44383e-22)
(5.04123 0.0283202 -3.60501e-23)
(5.04262 0.0284882 -3.53075e-24)
(5.044 0.0286217 4.28273e-22)
(5.04538 0.0287202 -8.98911e-23)
(5.04675 0.028783 -1.52903e-22)
(5.04811 0.02881 -4.24515e-22)
(5.04945 0.0288007 0)
(5.05078 0.028755 2.41556e-22)
(5.0521 0.0286729 4.05736e-24)
(5.0534 0.0285545 -3.37379e-22)
(5.05467 0.0284 6.72646e-23)
(5.05592 0.0282096 2.97721e-22)
(5.05715 0.0279835 0)
(5.05835 0.0277223 0)
(5.05953 0.0274267 4.13697e-23)
(5.06067 0.0270975 -1.2497e-22)
(5.06178 0.0267358 0)
(5.06286 0.0263424 -1.37992e-18)
(5.0639 0.0259188 1.3794e-18)
(5.06491 0.0254661 0)
(5.06588 0.0249858 9.58938e-23)
(5.0668 0.0244792 1.484e-22)
(5.06769 0.0239478 -5.03155e-23)
(5.06854 0.0233932 -4.32039e-22)
(5.06934 0.0228171 -4.40263e-22)
(5.07011 0.0222214 -9.79084e-22)
(5.07082 0.0216078 1.08471e-22)
(5.0715 0.0209782 0)
(5.07213 0.0203346 -3.54692e-22)
(5.07272 0.0196789 1.40104e-24)
(5.07325 0.0190142 8.42509e-22)
(5.07375 0.0183372 5.71315e-22)
(5.07419 0.0176368 -2.34262e-22)
(5.07459 0.016937 6.02231e-23)
(5.07494 0.0162697 0)
(5.07524 0.015595 9.90368e-22)
(5.0755 0.0149106 0)
(5.07571 0.0142265 -1.93518e-21)
(5.07587 0.0135469 0)
(5.076 0.0128704 0)
(5.03524 0.0209152 0)
(5.03657 0.0211297 9.7776e-23)
(5.03785 0.0213188 -1.88024e-22)
(5.03911 0.0214902 3.20947e-24)
(5.04037 0.0216426 -7.7005e-23)
(5.04164 0.0217742 -3.21527e-24)
(5.04289 0.0218843 -3.48928e-22)
(5.04413 0.0219722 9.6388e-23)
(5.04537 0.022037 1.49974e-22)
(5.04658 0.0220779 2.14363e-22)
(5.04779 0.0220946 0)
(5.04898 0.0220867 0)
(5.05015 0.0220538 4.42344e-22)
(5.0513 0.0219962 -6.52084e-23)
(5.05243 0.0219132 -7.10054e-23)
(5.05354 0.021805 -7.10429e-23)
(5.05462 0.0216721 -7.08937e-23)
(5.05568 0.0215149 -7.65496e-23)
(5.05672 0.0213337 0)
(5.05772 0.0211293 1.04751e-22)
(5.0587 0.0209017 -2.10817e-23)
(5.05964 0.0206497 2.70245e-18)
(5.06056 0.0203748 -2.7016e-18)
(5.06144 0.0200809 0)
(5.06229 0.0197687 -9.59913e-23)
(5.0631 0.0194375 -9.81636e-23)
(5.06388 0.0190876 -9.95316e-23)
(5.06462 0.0187201 9.9479e-23)
(5.06532 0.018336 1.02996e-22)
(5.06599 0.0179359 4.1881e-22)
(5.06662 0.0175207 1.04503e-22)
(5.0672 0.0170892 2.08933e-22)
(5.06776 0.016652 0)
(5.06827 0.0162184 0)
(5.06874 0.0157764 -4.32006e-22)
(5.06917 0.0153332 -4.55362e-22)
(5.06956 0.014877 4.3936e-22)
(5.06991 0.0144363 -8.11337e-22)
(5.07021 0.0139691 7.06215e-25)
(5.07048 0.0135365 -2.28165e-22)
(5.0707 0.0130694 -5.06865e-25)
(5.07089 0.0125948 1.11323e-21)
(5.07103 0.0121187 -5.08877e-22)
(5.07114 0.0116451 0)
(5.03319 0.0175241 -6.53682e-24)
(5.03442 0.0178439 -1.06567e-22)
(5.03569 0.0181369 0)
(5.03694 0.0184055 0)
(5.03817 0.0186517 -8.095e-23)
(5.03938 0.0188757 -4.20564e-23)
(5.04059 0.0190763 4.20859e-23)
(5.04178 0.0192532 -4.81864e-23)
(5.04296 0.019406 4.82132e-23)
(5.04412 0.0195343 -3.24249e-22)
(5.04526 0.0196387 0)
(5.04639 0.0197186 0)
(5.0475 0.0197737 -1.25165e-22)
(5.04859 0.019804 -6.56485e-23)
(5.04967 0.0198095 6.82202e-23)
(5.05071 0.0197905 2.12847e-22)
(5.05174 0.0197474 7.43245e-23)
(5.05275 0.0196806 -3.77962e-23)
(5.05373 0.0195905 3.92837e-23)
(5.05467 0.0194776 -5.93275e-23)
(5.05561 0.0193425 0)
(5.05651 0.0191859 3.88655e-18)
(5.05736 0.0190083 -3.88562e-18)
(5.0582 0.0188106 0)
(5.05901 0.0185935 -4.58682e-23)
(5.05979 0.0183578 9.1962e-23)
(5.06053 0.0181045 0)
(5.06123 0.0178342 9.55768e-23)
(5.06191 0.017548 1.639e-24)
(5.06254 0.0172468 -4.00717e-22)
(5.06315 0.0169312 0)
(5.06371 0.0166019 -2.09206e-22)
(5.06424 0.0162595 1.04235e-22)
(5.06472 0.0159113 -1.04157e-22)
(5.06518 0.015561 4.32634e-22)
(5.0656 0.0152042 -1.07284e-22)
(5.06598 0.0148425 -4.40957e-22)
(5.06632 0.0144771 1.08005e-22)
(5.06663 0.0141117 1.09459e-22)
(5.06691 0.0137467 1.06751e-22)
(5.06715 0.0133858 0)
(5.06735 0.0130382 0)
(5.06752 0.0126748 4.7999e-22)
(5.06764 0.0123069 -2.77153e-23)
(5.03519 0.00937746 -8.45342e-24)
(5.03636 0.00975777 8.46109e-24)
(5.03744 0.0100981 0)
(5.03851 0.0104119 4.21242e-23)
(5.03959 0.0107077 -6.11826e-24)
(5.04066 0.0109872 -2.71718e-24)
(5.04172 0.011249 4.76858e-23)
(5.04276 0.0114926 -5.30319e-23)
(5.04379 0.0117185 5.30597e-23)
(5.04481 0.0119269 1.09682e-22)
(5.04581 0.0121182 0)
(5.04679 0.0122922 0)
(5.04776 0.0124492 0)
(5.04871 0.0125893 -2.6248e-24)
(5.04965 0.0127127 -7.05675e-23)
(5.05056 0.0128196 -8.58813e-26)
(5.05145 0.0129102 7.31916e-23)
(5.05232 0.0129846 3.77972e-23)
(5.05317 0.0130434 3.97826e-23)
(5.05399 0.0130865 6.80855e-25)
(5.05479 0.0131153 -3.08663e-23)
(5.05557 0.0131317 1.04556e-23)
(5.05632 0.0131344 0)
(5.05704 0.0131213 0)
(5.05774 0.0130938 0)
(5.0584 0.0130537 1.76059e-25)
(5.05904 0.0130018 -4.62984e-23)
(5.05965 0.0129384 -9.5647e-23)
(5.06023 0.0128641 9.72038e-23)
(5.06078 0.0127795 2.71663e-25)
(5.0613 0.0126855 9.83448e-23)
(5.06179 0.0125828 0)
(5.06225 0.0124719 1.01818e-22)
(5.06268 0.0123522 -1.01748e-22)
(5.06308 0.0122237 0)
(5.06344 0.0120876 1.04396e-22)
(5.06378 0.0119456 -1.0431e-22)
(5.06409 0.011799 1.05766e-22)
(5.06437 0.0116487 6.73734e-25)
(5.06462 0.0114963 -4.29495e-22)
(5.06485 0.0113415 1.0674e-22)
(5.06505 0.0111911 0)
(5.06523 0.0110275 2.69922e-23)
(5.06538 0.0109201 -2.69611e-23)
(5.27631 -0.107006 0)
(5.241 -0.112313 0)
(5.20922 -0.110421 0)
(5.18329 -0.103188 0)
(5.16329 -0.0945422 0)
(5.1483 -0.0848957 0)
(5.13728 -0.0751258 0)
(5.12929 -0.0660161 0)
(5.12358 -0.0578541 0)
(5.11954 -0.0506912 0)
(5.11661 -0.0444849 0)
(5.11465 -0.0391563 0)
(5.11324 -0.0345705 0)
(5.11223 -0.0306268 0)
(5.11151 -0.0272767 0)
(5.111 -0.0244463 0)
(5.11065 -0.0220505 0)
(5.1104 -0.0200183 0)
(5.11022 -0.0182995 0)
(5.1101 -0.0168569 0)
(5.11001 -0.0156588 0)
(5.10995 -0.0146815 0)
(5.10991 -0.013905 0)
(5.10989 -0.0133111 0)
(5.1099 -0.0129197 0)
(5.10989 -0.0126052 0)
(5.24942 -0.0492463 0)
(5.22076 -0.0613494 0)
(5.19455 -0.0677795 0)
(5.1729 -0.067925 0)
(5.15567 -0.0648224 0)
(5.14194 -0.0605402 0)
(5.13116 -0.0550851 0)
(5.12294 -0.049268 0)
(5.11682 -0.0436527 0)
(5.11226 -0.038423 0)
(5.10888 -0.0336646 0)
(5.10623 -0.0294187 0)
(5.10418 -0.025679 0)
(5.1029 -0.0224082 0)
(5.10185 -0.0195632 0)
(5.10103 -0.0171175 0)
(5.1004 -0.0150271 0)
(5.0999 -0.0132448 0)
(5.0995 -0.0117356 0)
(5.09917 -0.0104726 0)
(5.0989 -0.0094328 0)
(5.09867 -0.00859647 0)
(5.09847 -0.00795073 0)
(5.0983 -0.00747806 0)
(5.09818 -0.0071953 0)
(5.09803 -0.00701482 0)
(5.22327 -0.0439455 0)
(5.2035 -0.0569031 0)
(5.18404 -0.0655433 0)
(5.16685 -0.0665508 0)
(5.15257 -0.0647951 0)
(5.14076 -0.0617174 0)
(5.13093 -0.0578657 0)
(5.12292 -0.0532588 0)
(5.1166 -0.0484305 0)
(5.11172 -0.0437795 0)
(5.10791 -0.0394352 0)
(5.10492 -0.0354536 0)
(5.10257 -0.0318963 0)
(5.10061 -0.0287573 0)
(5.09914 -0.0259741 0)
(5.09794 -0.0235197 0)
(5.09696 -0.0213778 0)
(5.09615 -0.0195255 0)
(5.09548 -0.0179379 0)
(5.0949 -0.0165907 0)
(5.0944 -0.0154632 0)
(5.09396 -0.014537 0)
(5.09357 -0.0138045 0)
(5.0932 -0.0132423 0)
(5.09294 -0.0128953 0)
(5.09246 -0.0125983 0)
(5.19825 -0.0171541 0)
(5.18424 -0.0288925 0)
(5.16948 -0.036326 0)
(5.15526 -0.0403457 0)
(5.14294 -0.0412543 0)
(5.13255 -0.0403161 0)
(5.12363 -0.0384425 0)
(5.11602 -0.0358263 0)
(5.10972 -0.0331205 0)
(5.10465 -0.0300519 0)
(5.10057 -0.0270209 0)
(5.09727 -0.0241562 0)
(5.0946 -0.0215044 0)
(5.09242 -0.0190912 0)
(5.09062 -0.0169206 0)
(5.08912 -0.0149784 0)
(5.08787 -0.0132634 0)
(5.08682 -0.0117729 0)
(5.08592 -0.0104944 0)
(5.08514 -0.00941239 0)
(5.08445 -0.00851393 0)
(5.08383 -0.00778599 0)
(5.08328 -0.00722284 0)
(5.08273 -0.00682576 0)
(5.08234 -0.0065329 0)
(5.08159 -0.00645926 0)
(5.17617 -0.0138857 0)
(5.16628 -0.0250622 0)
(5.15515 -0.0327087 0)
(5.14398 -0.0384049 0)
(5.13373 -0.0403819 0)
(5.12479 -0.0404989 0)
(5.11705 -0.03964 0)
(5.11033 -0.0381174 0)
(5.10456 -0.0361626 0)
(5.09967 -0.0338431 0)
(5.09559 -0.031338 0)
(5.09221 -0.0288615 0)
(5.08941 -0.02649 0)
(5.08707 -0.0242709 0)
(5.0851 -0.0222292 0)
(5.08342 -0.0203711 0)
(5.08199 -0.0187021 0)
(5.08076 -0.0172246 0)
(5.07968 -0.0159342 0)
(5.07873 -0.0148226 0)
(5.07789 -0.0138824 0)
(5.07712 -0.0131054 0)
(5.07643 -0.012489 0)
(5.07573 -0.0120141 0)
(5.07521 -0.0117204 0)
(5.07436 -0.0114684 0)
(5.15619 -0.001212 0)
(5.14912 -0.0107894 0)
(5.1409 -0.0178723 0)
(5.13226 -0.0225001 0)
(5.12381 -0.0254465 0)
(5.11607 -0.0265527 0)
(5.10923 -0.0264697 0)
(5.10322 -0.0256444 0)
(5.0979 -0.0243908 0)
(5.09322 -0.0228408 0)
(5.08917 -0.0211153 0)
(5.08573 -0.0193547 0)
(5.0828 -0.0175986 0)
(5.08031 -0.0158772 0)
(5.07816 -0.0142648 0)
(5.0763 -0.0127817 0)
(5.07468 -0.0114373 0)
(5.07327 -0.0102384 0)
(5.07202 -0.00918792 0)
(5.07089 -0.00828436 0)
(5.06988 -0.00752709 0)
(5.06895 -0.00687757 0)
(5.06811 -0.0063767 0)
(5.06724 -0.00601527 0)
(5.06663 -0.00582241 0)
(5.06537 -0.00575912 0)
(5.1388 0.000271305 0)
(5.1339 -0.00812881 0)
(5.12769 -0.0146862 0)
(5.1209 -0.0194925 0)
(5.11407 -0.0226412 0)
(5.10756 -0.0245509 0)
(5.10157 -0.025321 0)
(5.09617 -0.0252053 0)
(5.09134 -0.024602 0)
(5.08705 -0.0237005 0)
(5.08325 -0.0225771 0)
(5.07992 -0.021325 0)
(5.077 -0.0199254 0)
(5.07445 -0.0185284 0)
(5.07223 -0.0171856 0)
(5.07029 -0.0159221 0)
(5.06858 -0.014755 0)
(5.06706 -0.0136962 0)
(5.0657 -0.0127524 0)
(5.06447 -0.0119266 0)
(5.06334 -0.0112205 0)
(5.0623 -0.0106336 0)
(5.06134 -0.0101655 0)
(5.06038 -0.00980692 0)
(5.05967 -0.00958055 0)
(5.05848 -0.00940782 0)
(5.12365 0.00616161 0)
(5.12016 -0.000912305 0)
(5.11554 -0.00663072 0)
(5.11024 -0.0109517 0)