/*--------------------------------*- C++ -*----------------------------------*\
| =========                 |                                                 |
| \\      /  F ield         | OpenFOAM: The Open Source CFD Toolbox           |
|  \\    /   O peration     | Version:  2412                                  |
|   \\  /    A nd           | Website:  www.openfoam.com                      |
|    \\/     M anipulation  |                                                 |
\*---------------------------------------------------------------------------*/
FoamFile
{
    version     2.0;
    format      ascii;
    arch        "LSB;label=32;scalar=64";
    class       volScalarField;
    location    "1500";
    object      yPlus;
}
// * * * * * * * * * * * * * * * * * * * * * * * * * * * * * * * * * * * * * //

dimensions      [0 0 0 0 0 0 0];

internalField   uniform 0;

boundaryField
{
    sides
    {
        type            empty;
    }
    inlet
    {
        type            calculated;
        value           uniform 0;
    }
    topBot
    {
        type            calculated;
        value           uniform 0;
    }
    outlet
    {
        type            calculated;
        value           uniform 0;
    }
    wall
    {
        type            calculated;
        value           nonuniform List<scalar> 
176
(
600.852
583.09
564.257
544.372
523.46
501.591
478.799
455.118
430.58
405.211
379.034
352.073
324.349
295.872
266.587
236.411
205.318
173.721
141.138
104.899
74.0415
50.771
50.7755
74.0514
104.909
141.149
173.73
205.327
236.419
266.595
295.88
324.357
352.081
379.042
405.218
430.587
455.125
478.805
501.598
523.466
544.378
564.263
583.095
600.857
91.4251
96.8194
102.296
107.596
112.469
116.686
120.049
122.382
123.533
123.381
121.873
118.958
114.621
108.836
101.686
93.1774
83.3914
72.5214
60.7638
47.7618
35.5727
26.7582
26.7878
35.635
47.838
60.834
72.5888
83.4567
93.2399
101.745
108.891
114.673
119.006
121.917
123.421
123.568
122.413
120.076
116.709
112.487
107.61
102.306
96.8259
91.4282
617.543
633.166
647.748
661.327
673.798
685.065
695.061
703.722
710.963
716.716
720.883
723.38
724.225
723.312
720.543
715.741
708.746
699.342
687.177
671.802
652.741
629.397
600.81
566.186
524.14
473.446
411.909
338.379
256.373
168.125
77.8865
49.7001
88.3122
99.3444
100.627
81.5143
74.4552
71.0405
72.0673
73.0335
75.1615
78.2115
81.9252
86.3766
617.538
633.162
647.744
661.323
673.795
685.062
695.058
703.72
710.962
716.716
720.883
723.381
724.226
723.314
720.546
715.744
708.75
699.347
687.183
671.81
652.75
629.408
600.822
566.201
524.157
473.466
411.933
338.404
256.399
168.148
77.9111
49.6837
88.313
99.3469
100.632
81.5178
74.4543
71.0365
72.0624
73.0277
75.1559
78.2073
81.9229
86.3768
)
;
    }
}


// ************************************************************************* //
