/*--------------------------------*- C++ -*----------------------------------*\
| =========                 |                                                 |
| \\      /  F ield         | OpenFOAM: The Open Source CFD Toolbox           |
|  \\    /   O peration     | Version:  2412                                  |
|   \\  /    A nd           | Website:  www.openfoam.com                      |
|    \\/     M anipulation  |                                                 |
\*---------------------------------------------------------------------------*/
FoamFile
{
    version     2.0;
    format      ascii;
    arch        "LSB;label=32;scalar=64";
    class       volScalarField;
    location    "1500";
    object      nut;
}
// * * * * * * * * * * * * * * * * * * * * * * * * * * * * * * * * * * * * * //

dimensions      [0 2 -1 0 0 0 0];

internalField   nonuniform List<scalar> 
14132
(
1.0446e-09
1.04562e-09
1.04664e-09
1.04767e-09
1.04869e-09
1.04972e-09
1.05073e-09
1.05177e-09
1.05275e-09
1.0538e-09
1.04462e-09
1.04568e-09
1.04674e-09
1.04781e-09
1.04887e-09
1.04993e-09
1.051e-09
1.05205e-09
1.05315e-09
1.05409e-09
1.04462e-09
1.04568e-09
1.04675e-09
1.04781e-09
1.04888e-09
1.04995e-09
1.05102e-09
1.05209e-09
1.05316e-09
1.05423e-09
1.04461e-09
1.04564e-09
1.04668e-09
1.04772e-09
1.04876e-09
1.0498e-09
1.05084e-09
1.05189e-09
1.05293e-09
1.05399e-09
1.04459e-09
1.04557e-09
1.04656e-09
1.04754e-09
1.04853e-09
1.04952e-09
1.05051e-09
1.05152e-09
1.0525e-09
1.05353e-09
1.04455e-09
1.04547e-09
1.04639e-09
1.04731e-09
1.04823e-09
1.04916e-09
1.05009e-09
1.05102e-09
1.05194e-09
1.05289e-09
1.04452e-09
1.04536e-09
1.0462e-09
1.04705e-09
1.04789e-09
1.04874e-09
1.04959e-09
1.05045e-09
1.05129e-09
1.05217e-09
1.04447e-09
1.04524e-09
1.046e-09
1.04676e-09
1.04752e-09
1.04829e-09
1.04905e-09
1.04983e-09
1.05059e-09
1.05138e-09
1.04443e-09
1.04511e-09
1.04578e-09
1.04646e-09
1.04714e-09
1.04782e-09
1.0485e-09
1.04919e-09
1.04986e-09
1.05057e-09
1.04439e-09
1.04498e-09
1.04557e-09
1.04616e-09
1.04676e-09
1.04735e-09
1.04794e-09
1.04854e-09
1.04913e-09
1.04975e-09
1.04435e-09
1.04485e-09
1.04536e-09
1.04587e-09
1.04637e-09
1.04688e-09
1.04739e-09
1.04791e-09
1.04841e-09
1.04894e-09
1.04431e-09
1.04473e-09
1.04515e-09
1.04557e-09
1.046e-09
1.04642e-09
1.04685e-09
1.04727e-09
1.04769e-09
1.04813e-09
1.04426e-09
1.0446e-09
1.04494e-09
1.04528e-09
1.04562e-09
1.04596e-09
1.0463e-09
1.04665e-09
1.04699e-09
1.04733e-09
1.04422e-09
1.04448e-09
1.04473e-09
1.04499e-09
1.04524e-09
1.0455e-09
1.04575e-09
1.04601e-09
1.04627e-09
1.04653e-09
1.04418e-09
1.04434e-09
1.0445e-09
1.04467e-09
1.04483e-09
1.045e-09
1.04516e-09
1.04533e-09
1.0455e-09
1.04567e-09
1.04412e-09
1.04418e-09
1.04424e-09
1.0443e-09
1.04435e-09
1.0444e-09
1.04443e-09
1.04445e-09
1.04447e-09
1.04449e-09
1.05451e-09
1.05471e-09
1.05489e-09
1.05506e-09
1.05523e-09
1.0554e-09
1.05558e-09
1.05576e-09
1.05595e-09
1.05613e-09
1.05628e-09
1.05642e-09
1.05656e-09
1.0567e-09
1.05684e-09
1.05698e-09
1.05712e-09
1.05726e-09
1.0574e-09
1.05755e-09
1.0577e-09
1.05786e-09
1.05802e-09
1.05819e-09
1.05837e-09
1.05856e-09
1.05876e-09
1.05897e-09
1.0592e-09
1.05946e-09
1.05974e-09
1.06006e-09
1.06044e-09
1.06089e-09
1.06147e-09
1.062e-09
1.06249e-09
1.06276e-09
1.06294e-09
1.06308e-09
1.06321e-09
1.06334e-09
1.06347e-09
1.0636e-09
1.06373e-09
1.06386e-09
1.06399e-09
1.06414e-09
1.06425e-09
1.06443e-09
1.06471e-09
1.06508e-09
1.06553e-09
1.06603e-09
1.06656e-09
1.06711e-09
1.06764e-09
1.06823e-09
1.06871e-09
1.0548e-09
1.05508e-09
1.05538e-09
1.05567e-09
1.05594e-09
1.05618e-09
1.05639e-09
1.05658e-09
1.05677e-09
1.05695e-09
1.05713e-09
1.05731e-09
1.05749e-09
1.05767e-09
1.05784e-09
1.05802e-09
1.05819e-09
1.05837e-09
1.05854e-09
1.05871e-09
1.05887e-09
1.05904e-09
1.0592e-09
1.05936e-09
1.05953e-09
1.05969e-09
1.05985e-09
1.06001e-09
1.06017e-09
1.06033e-09
1.06049e-09
1.06065e-09
1.06082e-09
1.06097e-09
1.0612e-09
1.06152e-09
1.06185e-09
1.06209e-09
1.06229e-09
1.06247e-09
1.06265e-09
1.06282e-09
1.06299e-09
1.06317e-09
1.06334e-09
1.06351e-09
1.06368e-09
1.06386e-09
1.06401e-09
1.0642e-09
1.06446e-09
1.06479e-09
1.06519e-09
1.06564e-09
1.06611e-09
1.06661e-09
1.06711e-09
1.0676e-09
1.06815e-09
1.05489e-09
1.05509e-09
1.05528e-09
1.05546e-09
1.05565e-09
1.05583e-09
1.05601e-09
1.05619e-09
1.05636e-09
1.05654e-09
1.05671e-09
1.05689e-09
1.05706e-09
1.05724e-09
1.05741e-09
1.05758e-09
1.05776e-09
1.05793e-09
1.05811e-09
1.05828e-09
1.05846e-09
1.05863e-09
1.05881e-09
1.05898e-09
1.05916e-09
1.05934e-09
1.05951e-09
1.0597e-09
1.0599e-09
1.06012e-09
1.06036e-09
1.06064e-09
1.06095e-09
1.06132e-09
1.06175e-09
1.06219e-09
1.06261e-09
1.06297e-09
1.06331e-09
1.06355e-09
1.06374e-09
1.06392e-09
1.06409e-09
1.06426e-09
1.06443e-09
1.06459e-09
1.06476e-09
1.06493e-09
1.0651e-09
1.06527e-09
1.06544e-09
1.06561e-09
1.06577e-09
1.06596e-09
1.06618e-09
1.06648e-09
1.06677e-09
1.06716e-09
1.06746e-09
1.05462e-09
1.0548e-09
1.05498e-09
1.05515e-09
1.05532e-09
1.0555e-09
1.05567e-09
1.05585e-09
1.05602e-09
1.05619e-09
1.05637e-09
1.05654e-09
1.05672e-09
1.05689e-09
1.05707e-09
1.05724e-09
1.05742e-09
1.05759e-09
1.05776e-09
1.05794e-09
1.05811e-09
1.05829e-09
1.05846e-09
1.05864e-09
1.05881e-09
1.05898e-09
1.05916e-09
1.05933e-09
1.05951e-09
1.05968e-09
1.05985e-09
1.06003e-09
1.0602e-09
1.06038e-09
1.06061e-09
1.06089e-09
1.06119e-09
1.06147e-09
1.06171e-09
1.06192e-09
1.0621e-09
1.06229e-09
1.06247e-09
1.06265e-09
1.06284e-09
1.06302e-09
1.0632e-09
1.06338e-09
1.06357e-09
1.06375e-09
1.06394e-09
1.06412e-09
1.0643e-09
1.06451e-09
1.06476e-09
1.06505e-09
1.06536e-09
1.06569e-09
1.06608e-09
1.05415e-09
1.05432e-09
1.05449e-09
1.05465e-09
1.05481e-09
1.05498e-09
1.05514e-09
1.05531e-09
1.05547e-09
1.05563e-09
1.0558e-09
1.05596e-09
1.05612e-09
1.05629e-09
1.05645e-09
1.05661e-09
1.05678e-09
1.05694e-09
1.05711e-09
1.05727e-09
1.05743e-09
1.0576e-09
1.05776e-09
1.05793e-09
1.05809e-09
1.05826e-09
1.05843e-09
1.05859e-09
1.05876e-09
1.05893e-09
1.05909e-09
1.05926e-09
1.05945e-09
1.05966e-09
1.05989e-09
1.06015e-09
1.06046e-09
1.06077e-09
1.06107e-09
1.06135e-09
1.06161e-09
1.06181e-09
1.06199e-09
1.06217e-09
1.06234e-09
1.06251e-09
1.06268e-09
1.06285e-09
1.06302e-09
1.06319e-09
1.06336e-09
1.06354e-09
1.06371e-09
1.06388e-09
1.06406e-09
1.06424e-09
1.06439e-09
1.06461e-09
1.06483e-09
1.05347e-09
1.05362e-09
1.05378e-09
1.05393e-09
1.05408e-09
1.05424e-09
1.05439e-09
1.05454e-09
1.05469e-09
1.05485e-09
1.055e-09
1.05515e-09
1.05531e-09
1.05546e-09
1.05562e-09
1.05577e-09
1.05592e-09
1.05608e-09
1.05623e-09
1.05639e-09
1.05654e-09
1.0567e-09
1.05686e-09
1.05701e-09
1.05717e-09
1.05732e-09
1.05748e-09
1.05764e-09
1.05779e-09
1.05795e-09
1.05811e-09
1.05826e-09
1.05842e-09
1.05858e-09
1.05874e-09
1.05889e-09
1.05908e-09
1.05929e-09
1.05951e-09
1.05972e-09
1.0599e-09
1.06007e-09
1.06024e-09
1.0604e-09
1.06057e-09
1.06073e-09
1.0609e-09
1.06106e-09
1.06123e-09
1.0614e-09
1.06156e-09
1.06173e-09
1.0619e-09
1.06207e-09
1.06224e-09
1.0624e-09
1.06258e-09
1.06276e-09
1.063e-09
1.0527e-09
1.05284e-09
1.05298e-09
1.05312e-09
1.05326e-09
1.0534e-09
1.05354e-09
1.05368e-09
1.05382e-09
1.05396e-09
1.0541e-09
1.05424e-09
1.05438e-09
1.05452e-09
1.05466e-09
1.0548e-09
1.05494e-09
1.05508e-09
1.05522e-09
1.05536e-09
1.0555e-09
1.05564e-09
1.05579e-09
1.05593e-09
1.05607e-09
1.05621e-09
1.05636e-09
1.0565e-09
1.05664e-09
1.05679e-09
1.05693e-09
1.05708e-09
1.05722e-09
1.05737e-09
1.05751e-09
1.05766e-09
1.0578e-09
1.05796e-09
1.05813e-09
1.05833e-09
1.05855e-09
1.05876e-09
1.05897e-09
1.05914e-09
1.0593e-09
1.05946e-09
1.05961e-09
1.05976e-09
1.05991e-09
1.06006e-09
1.06021e-09
1.06037e-09
1.06052e-09
1.06067e-09
1.06083e-09
1.06098e-09
1.06114e-09
1.06129e-09
1.06146e-09
1.05185e-09
1.05198e-09
1.05211e-09
1.05224e-09
1.05236e-09
1.05249e-09
1.05261e-09
1.05274e-09
1.05286e-09
1.05299e-09
1.05312e-09
1.05324e-09
1.05337e-09
1.0535e-09
1.05362e-09
1.05375e-09
1.05388e-09
1.05401e-09
1.05413e-09
1.05426e-09
1.05439e-09
1.05452e-09
1.05465e-09
1.05477e-09
1.0549e-09
1.05503e-09
1.05516e-09
1.05529e-09
1.05542e-09
1.05555e-09
1.05568e-09
1.05581e-09
1.05594e-09
1.05608e-09
1.05621e-09
1.05634e-09
1.05647e-09
1.0566e-09
1.05674e-09
1.05687e-09
1.05702e-09
1.05717e-09
1.05732e-09
1.05746e-09
1.05759e-09
1.05773e-09
1.05787e-09
1.05801e-09
1.05815e-09
1.05828e-09
1.05842e-09
1.05856e-09
1.0587e-09
1.05884e-09
1.05898e-09
1.05913e-09
1.05927e-09
1.05941e-09
1.05956e-09
1.05099e-09
1.0511e-09
1.05122e-09
1.05133e-09
1.05144e-09
1.05155e-09
1.05166e-09
1.05177e-09
1.05189e-09
1.052e-09
1.05211e-09
1.05222e-09
1.05233e-09
1.05244e-09
1.05256e-09
1.05267e-09
1.05278e-09
1.0529e-09
1.05301e-09
1.05312e-09
1.05324e-09
1.05335e-09
1.05346e-09
1.05358e-09
1.05369e-09
1.05381e-09
1.05392e-09
1.05404e-09
1.05415e-09
1.05427e-09
1.05438e-09
1.0545e-09
1.05462e-09
1.05473e-09
1.05485e-09
1.05497e-09
1.05509e-09
1.0552e-09
1.05532e-09
1.05544e-09
1.05556e-09
1.05568e-09
1.0558e-09
1.05592e-09
1.05604e-09
1.05618e-09
1.05631e-09
1.05644e-09
1.05656e-09
1.05668e-09
1.05681e-09
1.05693e-09
1.05706e-09
1.05718e-09
1.05731e-09
1.05743e-09
1.05756e-09
1.05768e-09
1.05781e-09
1.05011e-09
1.05022e-09
1.05031e-09
1.05041e-09
1.05051e-09
1.05061e-09
1.0507e-09
1.0508e-09
1.0509e-09
1.051e-09
1.05109e-09
1.05119e-09
1.05129e-09
1.05139e-09
1.05149e-09
1.05159e-09
1.05168e-09
1.05178e-09
1.05188e-09
1.05198e-09
1.05208e-09
1.05218e-09
1.05228e-09
1.05238e-09
1.05248e-09
1.05258e-09
1.05268e-09
1.05278e-09
1.05288e-09
1.05298e-09
1.05308e-09
1.05319e-09
1.05329e-09
1.05339e-09
1.05349e-09
1.0536e-09
1.0537e-09
1.0538e-09
1.05391e-09
1.05401e-09
1.05411e-09
1.05422e-09
1.05432e-09
1.05443e-09
1.05453e-09
1.05464e-09
1.05474e-09
1.05485e-09
1.05496e-09
1.05507e-09
1.05517e-09
1.05528e-09
1.05539e-09
1.0555e-09
1.05561e-09
1.05572e-09
1.05583e-09
1.05594e-09
1.05605e-09
1.04925e-09
1.04933e-09
1.04942e-09
1.0495e-09
1.04958e-09
1.04967e-09
1.04975e-09
1.04983e-09
1.04992e-09
1.05e-09
1.05008e-09
1.05017e-09
1.05025e-09
1.05034e-09
1.05042e-09
1.0505e-09
1.05059e-09
1.05067e-09
1.05076e-09
1.05084e-09
1.05093e-09
1.05101e-09
1.0511e-09
1.05118e-09
1.05127e-09
1.05136e-09
1.05144e-09
1.05153e-09
1.05161e-09
1.0517e-09
1.05179e-09
1.05187e-09
1.05196e-09
1.05205e-09
1.05214e-09
1.05223e-09
1.05231e-09
1.0524e-09
1.05249e-09
1.05258e-09
1.05267e-09
1.05276e-09
1.05285e-09
1.05294e-09
1.05303e-09
1.05312e-09
1.05321e-09
1.0533e-09
1.05339e-09
1.05348e-09
1.05358e-09
1.05367e-09
1.05376e-09
1.05385e-09
1.05395e-09
1.05404e-09
1.05414e-09
1.05423e-09
1.05433e-09
1.0484e-09
1.04847e-09
1.04854e-09
1.04861e-09
1.04868e-09
1.04875e-09
1.04882e-09
1.04889e-09
1.04896e-09
1.04903e-09
1.0491e-09
1.04916e-09
1.04923e-09
1.0493e-09
1.04937e-09
1.04944e-09
1.04952e-09
1.04959e-09
1.04966e-09
1.04973e-09
1.0498e-09
1.04987e-09
1.04994e-09
1.05001e-09
1.05008e-09
1.05016e-09
1.05023e-09
1.0503e-09
1.05037e-09
1.05044e-09
1.05052e-09
1.05059e-09
1.05066e-09
1.05074e-09
1.05081e-09
1.05088e-09
1.05096e-09
1.05103e-09
1.05111e-09
1.05118e-09
1.05125e-09
1.05133e-09
1.0514e-09
1.05148e-09
1.05156e-09
1.05163e-09
1.05171e-09
1.05178e-09
1.05186e-09
1.05194e-09
1.05201e-09
1.05209e-09
1.05217e-09
1.05225e-09
1.05233e-09
1.0524e-09
1.05248e-09
1.05256e-09
1.05264e-09
1.04754e-09
1.0476e-09
1.04765e-09
1.04771e-09
1.04776e-09
1.04782e-09
1.04788e-09
1.04793e-09
1.04798e-09
1.04803e-09
1.04808e-09
1.04813e-09
1.04818e-09
1.04824e-09
1.04829e-09
1.04835e-09
1.04841e-09
1.04846e-09
1.04852e-09
1.04858e-09
1.04863e-09
1.04869e-09
1.04875e-09
1.04881e-09
1.04886e-09
1.04892e-09
1.04898e-09
1.04904e-09
1.04909e-09
1.04915e-09
1.04921e-09
1.04927e-09
1.04933e-09
1.04939e-09
1.04945e-09
1.0495e-09
1.04956e-09
1.04962e-09
1.04968e-09
1.04974e-09
1.0498e-09
1.04986e-09
1.04992e-09
1.04998e-09
1.05004e-09
1.0501e-09
1.05016e-09
1.05022e-09
1.05028e-09
1.05035e-09
1.05041e-09
1.05047e-09
1.05053e-09
1.05059e-09
1.05066e-09
1.05072e-09
1.05078e-09
1.05085e-09
1.05091e-09
1.04669e-09
1.04674e-09
1.04678e-09
1.04682e-09
1.04686e-09
1.04691e-09
1.04695e-09
1.04699e-09
1.04703e-09
1.04708e-09
1.04712e-09
1.04716e-09
1.04721e-09
1.04725e-09
1.04729e-09
1.04734e-09
1.04738e-09
1.04742e-09
1.04747e-09
1.04751e-09
1.04755e-09
1.0476e-09
1.04764e-09
1.04768e-09
1.04773e-09
1.04777e-09
1.04782e-09
1.04786e-09
1.04791e-09
1.04795e-09
1.048e-09
1.04805e-09
1.0481e-09
1.04815e-09
1.0482e-09
1.04825e-09
1.0483e-09
1.04835e-09
1.04841e-09
1.04846e-09
1.04852e-09
1.04857e-09
1.04863e-09
1.04869e-09
1.04875e-09
1.04882e-09
1.04888e-09
1.04895e-09
1.04902e-09
1.04908e-09
1.04914e-09
1.0492e-09
1.04926e-09
1.04931e-09
1.04936e-09
1.04941e-09
1.04946e-09
1.0495e-09
1.04955e-09
1.04576e-09
1.04579e-09
1.04582e-09
1.04584e-09
1.04587e-09
1.0459e-09
1.04593e-09
1.04595e-09
1.04598e-09
1.04601e-09
1.04604e-09
1.04606e-09
1.04609e-09
1.04612e-09
1.04615e-09
1.04617e-09
1.0462e-09
1.04623e-09
1.04626e-09
1.04628e-09
1.04631e-09
1.04634e-09
1.04637e-09
1.04639e-09
1.04642e-09
1.04644e-09
1.04646e-09
1.04648e-09
1.0465e-09
1.04652e-09
1.04655e-09
1.04658e-09
1.04661e-09
1.04665e-09
1.04668e-09
1.04671e-09
1.04675e-09
1.04678e-09
1.04682e-09
1.04686e-09
1.0469e-09
1.04694e-09
1.04698e-09
1.04702e-09
1.04706e-09
1.04711e-09
1.04715e-09
1.0472e-09
1.04725e-09
1.0473e-09
1.04734e-09
1.04739e-09
1.04743e-09
1.04748e-09
1.04752e-09
1.04756e-09
1.04759e-09
1.04762e-09
1.04765e-09
1.04452e-09
1.04453e-09
1.04455e-09
1.04457e-09
1.04458e-09
1.0446e-09
1.04461e-09
1.04462e-09
1.04464e-09
1.04465e-09
1.04466e-09
1.04467e-09
1.04468e-09
1.04468e-09
1.04469e-09
1.04469e-09
1.0447e-09
1.0447e-09
1.0447e-09
1.04471e-09
1.04471e-09
1.04471e-09
1.04471e-09
1.04471e-09
1.04472e-09
1.04472e-09
1.04473e-09
1.04474e-09
1.04474e-09
1.04475e-09
1.04476e-09
1.04477e-09
1.04479e-09
1.0448e-09
1.04481e-09
1.04483e-09
1.04484e-09
1.04486e-09
1.04487e-09
1.04489e-09
1.0449e-09
1.04492e-09
1.04493e-09
1.04495e-09
1.04496e-09
1.04497e-09
1.04498e-09
1.04499e-09
1.045e-09
1.04501e-09
1.04501e-09
1.04502e-09
1.04503e-09
1.04503e-09
1.04504e-09
1.04504e-09
1.04504e-09
1.04504e-09
1.04505e-09
1.07017e-09
1.07199e-09
1.07343e-09
1.07455e-09
1.07578e-09
1.07713e-09
1.07854e-09
1.07997e-09
1.08142e-09
1.08289e-09
1.08433e-09
1.0858e-09
1.08729e-09
1.08877e-09
1.09025e-09
1.09173e-09
1.0932e-09
1.09468e-09
1.09616e-09
1.09764e-09
1.09913e-09
1.10062e-09
1.10211e-09
1.10365e-09
1.10493e-09
1.10738e-09
1.0692e-09
1.07058e-09
1.07188e-09
1.07294e-09
1.0738e-09
1.07473e-09
1.07571e-09
1.0767e-09
1.0777e-09
1.0787e-09
1.07972e-09
1.08068e-09
1.08141e-09
1.0822e-09
1.08304e-09
1.08393e-09
1.08486e-09
1.08585e-09
1.08686e-09
1.08788e-09
1.0889e-09
1.08992e-09
1.09094e-09
1.092e-09
1.09288e-09
1.09454e-09
1.06812e-09
1.0691e-09
1.0703e-09
1.07135e-09
1.0722e-09
1.07296e-09
1.07381e-09
1.07471e-09
1.07564e-09
1.07657e-09
1.07752e-09
1.07846e-09
1.07939e-09
1.08023e-09
1.08109e-09
1.082e-09
1.08294e-09
1.08389e-09
1.08485e-09
1.08581e-09
1.08677e-09
1.08773e-09
1.08869e-09
1.08969e-09
1.09051e-09
1.09209e-09
1.06681e-09
1.06789e-09
1.06895e-09
1.07007e-09
1.07114e-09
1.07211e-09
1.07305e-09
1.07397e-09
1.07495e-09
1.07596e-09
1.07699e-09
1.07802e-09
1.07905e-09
1.08008e-09
1.08112e-09
1.08215e-09
1.0832e-09
1.08424e-09
1.08529e-09
1.08634e-09
1.08739e-09
1.08844e-09
1.08948e-09
1.09057e-09
1.09146e-09
1.09316e-09
1.06541e-09
1.06639e-09
1.06723e-09
1.06829e-09
1.06936e-09
1.07031e-09
1.07117e-09
1.07201e-09
1.07288e-09
1.07379e-09
1.07471e-09
1.07563e-09
1.07656e-09
1.07749e-09
1.07842e-09
1.07935e-09
1.08028e-09
1.08122e-09
1.08216e-09
1.0831e-09
1.08403e-09
1.08498e-09
1.08591e-09
1.08689e-09
1.08769e-09
1.08924e-09
1.06358e-09
1.06451e-09
1.06542e-09
1.06632e-09
1.06727e-09
1.06822e-09
1.06913e-09
1.06998e-09
1.07082e-09
1.07166e-09
1.07251e-09
1.07338e-09
1.07428e-09
1.07519e-09
1.0761e-09
1.07701e-09
1.07793e-09
1.07884e-09
1.07976e-09
1.08068e-09
1.0816e-09
1.08252e-09
1.08342e-09
1.08435e-09
1.08512e-09
1.08661e-09
1.06195e-09
1.06277e-09
1.06358e-09
1.06436e-09
1.0652e-09
1.06607e-09
1.06692e-09
1.06772e-09
1.06848e-09
1.06923e-09
1.07e-09
1.07079e-09
1.07159e-09
1.07239e-09
1.0732e-09
1.07401e-09
1.07482e-09
1.07564e-09
1.07645e-09
1.07727e-09
1.07808e-09
1.0789e-09
1.07971e-09
1.08056e-09
1.08126e-09
1.08259e-09
1.06001e-09
1.06077e-09
1.06152e-09
1.06226e-09
1.063e-09
1.06377e-09
1.06453e-09
1.06529e-09
1.06603e-09
1.06673e-09
1.06743e-09
1.06813e-09
1.06883e-09
1.06954e-09
1.07026e-09
1.07099e-09
1.07172e-09
1.07245e-09
1.07319e-09
1.07392e-09
1.07466e-09
1.07539e-09
1.07612e-09
1.07688e-09
1.07751e-09
1.07873e-09
1.05821e-09
1.05887e-09
1.05952e-09
1.06017e-09
1.06082e-09
1.06147e-09
1.06212e-09
1.06277e-09
1.06342e-09
1.06407e-09
1.06469e-09
1.06531e-09
1.06593e-09
1.06655e-09
1.06719e-09
1.06784e-09
1.06849e-09
1.06915e-09
1.06981e-09
1.07046e-09
1.07112e-09
1.07178e-09
1.07244e-09
1.07311e-09
1.07367e-09
1.07474e-09
1.0564e-09
1.05698e-09
1.05756e-09
1.05814e-09
1.05872e-09
1.0593e-09
1.05987e-09
1.06045e-09
1.06103e-09
1.0616e-09
1.06218e-09
1.06276e-09
1.06333e-09
1.06389e-09
1.06443e-09
1.06498e-09
1.06553e-09
1.06608e-09
1.06664e-09
1.06719e-09
1.06775e-09
1.06831e-09
1.06887e-09
1.06945e-09
1.06993e-09
1.07088e-09
1.05462e-09
1.05512e-09
1.05561e-09
1.0561e-09
1.05659e-09
1.05708e-09
1.05757e-09
1.05806e-09
1.05855e-09
1.05903e-09
1.05952e-09
1.06001e-09
1.0605e-09
1.06099e-09
1.06147e-09
1.06194e-09
1.06241e-09
1.06288e-09
1.06336e-09
1.06383e-09
1.06431e-09
1.06479e-09
1.06527e-09
1.06577e-09
1.06618e-09
1.06698e-09
1.05289e-09
1.05331e-09
1.05372e-09
1.05414e-09
1.05455e-09
1.05496e-09
1.05538e-09
1.05579e-09
1.0562e-09
1.05662e-09
1.05703e-09
1.05744e-09
1.05786e-09
1.05827e-09
1.05868e-09
1.0591e-09
1.05951e-09
1.05992e-09
1.06032e-09
1.06071e-09
1.06111e-09
1.06151e-09
1.0619e-09
1.06232e-09
1.06266e-09
1.06334e-09
1.05111e-09
1.05144e-09
1.05177e-09
1.0521e-09
1.05243e-09
1.05276e-09
1.05309e-09
1.05342e-09
1.05375e-09
1.05408e-09
1.05441e-09
1.05474e-09
1.05507e-09
1.0554e-09
1.05573e-09
1.05606e-09
1.05639e-09
1.05672e-09
1.05704e-09
1.05736e-09
1.05768e-09
1.058e-09
1.05832e-09
1.05866e-09
1.05894e-09
1.05947e-09
1.0497e-09
1.04996e-09
1.05021e-09
1.05046e-09
1.05072e-09
1.05097e-09
1.05122e-09
1.05147e-09
1.05173e-09
1.05198e-09
1.05223e-09
1.05248e-09
1.05274e-09
1.05299e-09
1.05324e-09
1.05349e-09
1.05374e-09
1.05399e-09
1.05424e-09
1.05448e-09
1.05472e-09
1.05497e-09
1.05521e-09
1.05547e-09
1.05568e-09
1.05609e-09
1.04775e-09
1.04792e-09
1.04809e-09
1.04825e-09
1.04842e-09
1.04858e-09
1.04875e-09
1.04891e-09
1.04908e-09
1.04924e-09
1.04941e-09
1.04957e-09
1.04974e-09
1.0499e-09
1.05007e-09
1.05023e-09
1.0504e-09
1.05056e-09
1.05072e-09
1.05089e-09
1.05105e-09
1.05121e-09
1.05137e-09
1.05154e-09
1.05168e-09
1.05195e-09
1.04507e-09
1.04513e-09
1.04519e-09
1.04526e-09
1.04532e-09
1.04539e-09
1.04546e-09
1.04554e-09
1.04562e-09
1.04571e-09
1.04579e-09
1.04588e-09
1.04596e-09
1.04604e-09
1.04612e-09
1.04619e-09
1.04626e-09
1.04633e-09
1.0464e-09
1.04646e-09
1.04653e-09
1.04659e-09
1.04666e-09
1.04672e-09
1.0468e-09
1.04682e-09
1.0446e-09
1.04562e-09
1.04664e-09
1.04767e-09
1.04869e-09
1.04971e-09
1.05073e-09
1.05176e-09
1.05274e-09
1.0538e-09
1.04462e-09
1.04568e-09
1.04674e-09
1.0478e-09
1.04887e-09
1.04993e-09
1.051e-09
1.05204e-09
1.05315e-09
1.05408e-09
1.04462e-09
1.04568e-09
1.04675e-09
1.04781e-09
1.04888e-09
1.04995e-09
1.05102e-09
1.05209e-09
1.05315e-09
1.05423e-09
1.04461e-09
1.04564e-09
1.04668e-09
1.04772e-09
1.04876e-09
1.0498e-09
1.05084e-09
1.05189e-09
1.05292e-09
1.05398e-09
1.04459e-09
1.04557e-09
1.04655e-09
1.04754e-09
1.04853e-09
1.04952e-09
1.05051e-09
1.05151e-09
1.05249e-09
1.05352e-09
1.04455e-09
1.04547e-09
1.04639e-09
1.04731e-09
1.04823e-09
1.04916e-09
1.05008e-09
1.05102e-09
1.05193e-09
1.05289e-09
1.04452e-09
1.04536e-09
1.0462e-09
1.04704e-09
1.04789e-09
1.04874e-09
1.04959e-09
1.05044e-09
1.05128e-09
1.05217e-09
1.04447e-09
1.04523e-09
1.046e-09
1.04676e-09
1.04752e-09
1.04829e-09
1.04905e-09
1.04983e-09
1.05059e-09
1.05138e-09
1.04443e-09
1.04511e-09
1.04578e-09
1.04646e-09
1.04714e-09
1.04782e-09
1.0485e-09
1.04919e-09
1.04986e-09
1.05057e-09
1.04439e-09
1.04498e-09
1.04557e-09
1.04616e-09
1.04676e-09
1.04735e-09
1.04794e-09
1.04854e-09
1.04913e-09
1.04975e-09
1.04435e-09
1.04485e-09
1.04536e-09
1.04587e-09
1.04637e-09
1.04688e-09
1.04739e-09
1.0479e-09
1.04841e-09
1.04893e-09
1.04431e-09
1.04473e-09
1.04515e-09
1.04557e-09
1.046e-09
1.04642e-09
1.04684e-09
1.04727e-09
1.04769e-09
1.04813e-09
1.04426e-09
1.0446e-09
1.04494e-09
1.04528e-09
1.04562e-09
1.04596e-09
1.0463e-09
1.04664e-09
1.04699e-09
1.04733e-09
1.04422e-09
1.04448e-09
1.04473e-09
1.04499e-09
1.04524e-09
1.0455e-09
1.04575e-09
1.04601e-09
1.04627e-09
1.04653e-09
1.04418e-09
1.04434e-09
1.0445e-09
1.04467e-09
1.04483e-09
1.045e-09
1.04516e-09
1.04533e-09
1.0455e-09
1.04566e-09
1.04412e-09
1.04418e-09
1.04424e-09
1.0443e-09
1.04435e-09
1.0444e-09
1.04443e-09
1.04445e-09
1.04447e-09
1.04449e-09
1.0545e-09
1.05471e-09
1.05489e-09
1.05506e-09
1.05523e-09
1.0554e-09
1.05557e-09
1.05575e-09
1.05594e-09
1.05613e-09
1.05628e-09
1.05642e-09
1.05656e-09
1.0567e-09
1.05683e-09
1.05698e-09
1.05712e-09
1.05726e-09
1.0574e-09
1.05755e-09
1.0577e-09
1.05785e-09
1.05802e-09
1.05819e-09
1.05837e-09
1.05856e-09
1.05876e-09
1.05898e-09
1.05921e-09
1.05946e-09
1.05975e-09
1.06007e-09
1.06044e-09
1.0609e-09
1.06148e-09
1.062e-09
1.06249e-09
1.06277e-09
1.06295e-09
1.06309e-09
1.06322e-09
1.06335e-09
1.06348e-09
1.06361e-09
1.06374e-09
1.06387e-09
1.064e-09
1.06415e-09
1.06426e-09
1.06444e-09
1.06472e-09
1.0651e-09
1.06555e-09
1.06605e-09
1.06657e-09
1.06713e-09
1.06766e-09
1.06825e-09
1.06873e-09
1.05479e-09
1.05508e-09
1.05538e-09
1.05566e-09
1.05593e-09
1.05617e-09
1.05639e-09
1.05658e-09
1.05676e-09
1.05695e-09
1.05713e-09
1.05731e-09
1.05749e-09
1.05766e-09
1.05784e-09
1.05802e-09
1.05819e-09
1.05837e-09
1.05854e-09
1.05871e-09
1.05887e-09
1.05904e-09
1.0592e-09
1.05937e-09
1.05953e-09
1.05969e-09
1.05985e-09
1.06001e-09
1.06017e-09
1.06033e-09
1.06049e-09
1.06066e-09
1.06082e-09
1.06098e-09
1.06121e-09
1.06153e-09
1.06186e-09
1.0621e-09
1.0623e-09
1.06248e-09
1.06265e-09
1.06283e-09
1.063e-09
1.06318e-09
1.06335e-09
1.06352e-09
1.06369e-09
1.06387e-09
1.06403e-09
1.06421e-09
1.06447e-09
1.0648e-09
1.0652e-09
1.06565e-09
1.06612e-09
1.06662e-09
1.06712e-09
1.06761e-09
1.06816e-09
1.05489e-09
1.05508e-09
1.05527e-09
1.05546e-09
1.05564e-09
1.05582e-09
1.05601e-09
1.05618e-09
1.05636e-09
1.05653e-09
1.05671e-09
1.05689e-09
1.05706e-09
1.05723e-09
1.05741e-09
1.05758e-09
1.05776e-09
1.05793e-09
1.05811e-09
1.05828e-09
1.05846e-09
1.05863e-09
1.05881e-09
1.05898e-09
1.05916e-09
1.05934e-09
1.05952e-09
1.0597e-09
1.0599e-09
1.06012e-09
1.06037e-09
1.06064e-09
1.06096e-09
1.06132e-09
1.06176e-09
1.06219e-09
1.06261e-09
1.06298e-09
1.06332e-09
1.06355e-09
1.06375e-09
1.06392e-09
1.06409e-09
1.06426e-09
1.06443e-09
1.0646e-09
1.06477e-09
1.06494e-09
1.06511e-09
1.06528e-09
1.06545e-09
1.06562e-09
1.06578e-09
1.06597e-09
1.06619e-09
1.06649e-09
1.06678e-09
1.06717e-09
1.06747e-09
1.05462e-09
1.0548e-09
1.05497e-09
1.05515e-09
1.05532e-09
1.05549e-09
1.05567e-09
1.05584e-09
1.05602e-09
1.05619e-09
1.05636e-09
1.05654e-09
1.05671e-09
1.05689e-09
1.05706e-09
1.05724e-09
1.05741e-09
1.05759e-09
1.05776e-09
1.05794e-09
1.05811e-09
1.05829e-09
1.05846e-09
1.05864e-09
1.05881e-09
1.05899e-09
1.05916e-09
1.05933e-09
1.05951e-09
1.05968e-09
1.05986e-09
1.06003e-09
1.06021e-09
1.06039e-09
1.06061e-09
1.06089e-09
1.06119e-09
1.06148e-09
1.06172e-09
1.06192e-09
1.06211e-09
1.0623e-09
1.06248e-09
1.06266e-09
1.06284e-09
1.06303e-09
1.06321e-09
1.06339e-09
1.06358e-09
1.06376e-09
1.06395e-09
1.06413e-09
1.06431e-09
1.06452e-09
1.06477e-09
1.06505e-09
1.06537e-09
1.0657e-09
1.06609e-09
1.05414e-09
1.05432e-09
1.05448e-09
1.05465e-09
1.05481e-09
1.05497e-09
1.05514e-09
1.0553e-09
1.05547e-09
1.05563e-09
1.05579e-09
1.05596e-09
1.05612e-09
1.05629e-09
1.05645e-09
1.05661e-09
1.05678e-09
1.05694e-09
1.05711e-09
1.05727e-09
1.05743e-09
1.0576e-09
1.05776e-09
1.05793e-09
1.0581e-09
1.05826e-09
1.05843e-09
1.0586e-09
1.05876e-09
1.05893e-09
1.0591e-09
1.05927e-09
1.05945e-09
1.05966e-09
1.05989e-09
1.06016e-09
1.06047e-09
1.06077e-09
1.06108e-09
1.06135e-09
1.06161e-09
1.06182e-09
1.062e-09
1.06217e-09
1.06234e-09
1.06251e-09
1.06269e-09
1.06286e-09
1.06303e-09
1.0632e-09
1.06337e-09
1.06355e-09
1.06372e-09
1.06389e-09
1.06406e-09
1.06425e-09
1.0644e-09
1.06462e-09
1.06484e-09
1.05346e-09
1.05362e-09
1.05377e-09
1.05393e-09
1.05408e-09
1.05423e-09
1.05439e-09
1.05454e-09
1.05469e-09
1.05485e-09
1.055e-09
1.05515e-09
1.05531e-09
1.05546e-09
1.05561e-09
1.05577e-09
1.05592e-09
1.05608e-09
1.05623e-09
1.05639e-09
1.05654e-09
1.0567e-09
1.05686e-09
1.05701e-09
1.05717e-09
1.05732e-09
1.05748e-09
1.05764e-09
1.05779e-09
1.05795e-09
1.05811e-09
1.05827e-09
1.05842e-09
1.05858e-09
1.05874e-09
1.0589e-09
1.05908e-09
1.05929e-09
1.05951e-09
1.05972e-09
1.05991e-09
1.06008e-09
1.06024e-09
1.06041e-09
1.06057e-09
1.06074e-09
1.0609e-09
1.06107e-09
1.06124e-09
1.0614e-09
1.06157e-09
1.06174e-09
1.06191e-09
1.06208e-09
1.06225e-09
1.06241e-09
1.06259e-09
1.06277e-09
1.063e-09
1.05269e-09
1.05284e-09
1.05298e-09
1.05312e-09
1.05326e-09
1.0534e-09
1.05354e-09
1.05368e-09
1.05382e-09
1.05396e-09
1.0541e-09
1.05424e-09
1.05438e-09
1.05452e-09
1.05466e-09
1.0548e-09
1.05494e-09
1.05508e-09
1.05522e-09
1.05536e-09
1.0555e-09
1.05564e-09
1.05579e-09
1.05593e-09
1.05607e-09
1.05621e-09
1.05636e-09
1.0565e-09
1.05664e-09
1.05679e-09
1.05693e-09
1.05708e-09
1.05722e-09
1.05737e-09
1.05752e-09
1.05766e-09
1.05781e-09
1.05796e-09
1.05813e-09
1.05834e-09
1.05856e-09
1.05877e-09
1.05897e-09
1.05915e-09
1.05931e-09
1.05946e-09
1.05961e-09
1.05976e-09
1.05992e-09
1.06007e-09
1.06022e-09
1.06037e-09
1.06053e-09
1.06068e-09
1.06084e-09
1.06099e-09
1.06115e-09
1.0613e-09
1.06146e-09
1.05185e-09
1.05198e-09
1.05211e-09
1.05223e-09
1.05236e-09
1.05248e-09
1.05261e-09
1.05274e-09
1.05286e-09
1.05299e-09
1.05312e-09
1.05324e-09
1.05337e-09
1.0535e-09
1.05362e-09
1.05375e-09
1.05388e-09
1.054e-09
1.05413e-09
1.05426e-09
1.05439e-09
1.05452e-09
1.05465e-09
1.05478e-09
1.0549e-09
1.05503e-09
1.05516e-09
1.05529e-09
1.05542e-09
1.05555e-09
1.05569e-09
1.05582e-09
1.05595e-09
1.05608e-09
1.05621e-09
1.05634e-09
1.05647e-09
1.05661e-09
1.05674e-09
1.05687e-09
1.05702e-09
1.05718e-09
1.05732e-09
1.05746e-09
1.0576e-09
1.05774e-09
1.05788e-09
1.05801e-09
1.05815e-09
1.05829e-09
1.05843e-09
1.05857e-09
1.05871e-09
1.05885e-09
1.05899e-09
1.05913e-09
1.05928e-09
1.05942e-09
1.05956e-09
1.05099e-09
1.0511e-09
1.05121e-09
1.05133e-09
1.05144e-09
1.05155e-09
1.05166e-09
1.05177e-09
1.05188e-09
1.052e-09
1.05211e-09
1.05222e-09
1.05233e-09
1.05244e-09
1.05256e-09
1.05267e-09
1.05278e-09
1.0529e-09
1.05301e-09
1.05312e-09
1.05324e-09
1.05335e-09
1.05346e-09
1.05358e-09
1.05369e-09
1.05381e-09
1.05392e-09
1.05404e-09
1.05415e-09
1.05427e-09
1.05438e-09
1.0545e-09
1.05462e-09
1.05474e-09
1.05485e-09
1.05497e-09
1.05509e-09
1.05521e-09
1.05533e-09
1.05544e-09
1.05556e-09
1.05568e-09
1.0558e-09
1.05592e-09
1.05605e-09
1.05619e-09
1.05632e-09
1.05644e-09
1.05657e-09
1.05669e-09
1.05681e-09
1.05694e-09
1.05706e-09
1.05718e-09
1.05731e-09
1.05744e-09
1.05756e-09
1.05769e-09
1.05782e-09
1.05011e-09
1.05021e-09
1.05031e-09
1.05041e-09
1.05051e-09
1.0506e-09
1.0507e-09
1.0508e-09
1.0509e-09
1.051e-09
1.05109e-09
1.05119e-09
1.05129e-09
1.05139e-09
1.05149e-09
1.05158e-09
1.05168e-09
1.05178e-09
1.05188e-09
1.05198e-09
1.05208e-09
1.05218e-09
1.05228e-09
1.05238e-09
1.05248e-09
1.05258e-09
1.05268e-09
1.05278e-09
1.05288e-09
1.05298e-09
1.05309e-09
1.05319e-09
1.05329e-09
1.05339e-09
1.0535e-09
1.0536e-09
1.0537e-09
1.0538e-09
1.05391e-09
1.05401e-09
1.05412e-09
1.05422e-09
1.05433e-09
1.05443e-09
1.05454e-09
1.05464e-09
1.05475e-09
1.05486e-09
1.05496e-09
1.05507e-09
1.05518e-09
1.05529e-09
1.05539e-09
1.0555e-09
1.05561e-09
1.05572e-09
1.05583e-09
1.05594e-09
1.05606e-09
1.04924e-09
1.04933e-09
1.04941e-09
1.0495e-09
1.04958e-09
1.04966e-09
1.04975e-09
1.04983e-09
1.04992e-09
1.05e-09
1.05008e-09
1.05017e-09
1.05025e-09
1.05033e-09
1.05042e-09
1.0505e-09
1.05059e-09
1.05067e-09
1.05076e-09
1.05084e-09
1.05093e-09
1.05101e-09
1.0511e-09
1.05118e-09
1.05127e-09
1.05136e-09
1.05144e-09
1.05153e-09
1.05162e-09
1.0517e-09
1.05179e-09
1.05188e-09
1.05196e-09
1.05205e-09
1.05214e-09
1.05223e-09
1.05232e-09
1.0524e-09
1.05249e-09
1.05258e-09
1.05267e-09
1.05276e-09
1.05285e-09
1.05294e-09
1.05303e-09
1.05312e-09
1.05321e-09
1.0533e-09
1.0534e-09
1.05349e-09
1.05358e-09
1.05367e-09
1.05376e-09
1.05386e-09
1.05395e-09
1.05405e-09
1.05414e-09
1.05423e-09
1.05433e-09
1.04839e-09
1.04847e-09
1.04854e-09
1.04861e-09
1.04868e-09
1.04875e-09
1.04882e-09
1.04889e-09
1.04896e-09
1.04903e-09
1.04909e-09
1.04916e-09
1.04923e-09
1.0493e-09
1.04937e-09
1.04944e-09
1.04952e-09
1.04959e-09
1.04966e-09
1.04973e-09
1.0498e-09
1.04987e-09
1.04994e-09
1.05001e-09
1.05008e-09
1.05016e-09
1.05023e-09
1.0503e-09
1.05037e-09
1.05045e-09
1.05052e-09
1.05059e-09
1.05066e-09
1.05074e-09
1.05081e-09
1.05088e-09
1.05096e-09
1.05103e-09
1.05111e-09
1.05118e-09
1.05126e-09
1.05133e-09
1.05141e-09
1.05148e-09
1.05156e-09
1.05163e-09
1.05171e-09
1.05179e-09
1.05186e-09
1.05194e-09
1.05202e-09
1.05209e-09
1.05217e-09
1.05225e-09
1.05233e-09
1.05241e-09
1.05249e-09
1.05257e-09
1.05265e-09
1.04754e-09
1.04759e-09
1.04765e-09
1.04771e-09
1.04776e-09
1.04782e-09
1.04787e-09
1.04793e-09
1.04798e-09
1.04803e-09
1.04808e-09
1.04813e-09
1.04818e-09
1.04824e-09
1.04829e-09
1.04835e-09
1.04841e-09
1.04846e-09
1.04852e-09
1.04858e-09
1.04863e-09
1.04869e-09
1.04875e-09
1.04881e-09
1.04886e-09
1.04892e-09
1.04898e-09
1.04904e-09
1.0491e-09
1.04915e-09
1.04921e-09
1.04927e-09
1.04933e-09
1.04939e-09
1.04945e-09
1.04951e-09
1.04956e-09
1.04962e-09
1.04968e-09
1.04974e-09
1.0498e-09
1.04986e-09
1.04992e-09
1.04998e-09
1.05004e-09
1.0501e-09
1.05016e-09
1.05023e-09
1.05029e-09
1.05035e-09
1.05041e-09
1.05047e-09
1.05053e-09
1.0506e-09
1.05066e-09
1.05072e-09
1.05078e-09
1.05085e-09
1.05091e-09
1.04669e-09