/*--------------------------------*- C++ -*----------------------------------*\
| =========                 |                                                 |
| \\      /  F ield         | OpenFOAM: The Open Source CFD Toolbox           |
|  \\    /   O peration     | Version:  2412                                  |
|   \\  /    A nd           | Website:  www.openfoam.com                      |
|    \\/     M anipulation  |                                                 |
\*---------------------------------------------------------------------------*/
FoamFile
{
    version     2.0;
    format      ascii;
    arch        "LSB;label=32;scalar=64";
    class       volScalarField;
    location    "1500";
    object      nuTilda;
}
// * * * * * * * * * * * * * * * * * * * * * * * * * * * * * * * * * * * * * //

dimensions      [0 2 -1 0 0 0 0];

internalField   nonuniform List<scalar> 
14132
(
5.84071e-06
5.84213e-06
5.84356e-06
5.84499e-06
5.84642e-06
5.84785e-06
5.84926e-06
5.8507e-06
5.85206e-06
5.85353e-06
5.84074e-06
5.84222e-06
5.8437e-06
5.84518e-06
5.84667e-06
5.84815e-06
5.84963e-06
5.85109e-06
5.85262e-06
5.85393e-06
5.84074e-06
5.84222e-06
5.84371e-06
5.84519e-06
5.84668e-06
5.84817e-06
5.84966e-06
5.85115e-06
5.85263e-06
5.85412e-06
5.84072e-06
5.84217e-06
5.84361e-06
5.84506e-06
5.84651e-06
5.84796e-06
5.84941e-06
5.85087e-06
5.85231e-06
5.85378e-06
5.84069e-06
5.84206e-06
5.84344e-06
5.84482e-06
5.84619e-06
5.84758e-06
5.84896e-06
5.85035e-06
5.85171e-06
5.85315e-06
5.84064e-06
5.84192e-06
5.84321e-06
5.84449e-06
5.84578e-06
5.84707e-06
5.84836e-06
5.84966e-06
5.85094e-06
5.85227e-06
5.84059e-06
5.84176e-06
5.84294e-06
5.84412e-06
5.8453e-06
5.84649e-06
5.84767e-06
5.84886e-06
5.85003e-06
5.85126e-06
5.84053e-06
5.84159e-06
5.84266e-06
5.84372e-06
5.84479e-06
5.84586e-06
5.84692e-06
5.848e-06
5.84906e-06
5.85016e-06
5.84047e-06
5.84142e-06
5.84236e-06
5.84331e-06
5.84425e-06
5.8452e-06
5.84615e-06
5.84711e-06
5.84805e-06
5.84903e-06
5.84041e-06
5.84124e-06
5.84206e-06
5.84289e-06
5.84372e-06
5.84455e-06
5.84538e-06
5.84621e-06
5.84703e-06
5.84789e-06
5.84035e-06
5.84106e-06
5.84177e-06
5.84248e-06
5.84318e-06
5.84389e-06
5.84461e-06
5.84532e-06
5.84603e-06
5.84676e-06
5.84029e-06
5.84088e-06
5.84148e-06
5.84207e-06
5.84266e-06
5.84325e-06
5.84384e-06
5.84444e-06
5.84503e-06
5.84564e-06
5.84024e-06
5.84071e-06
5.84118e-06
5.84166e-06
5.84213e-06
5.84261e-06
5.84308e-06
5.84356e-06
5.84404e-06
5.84452e-06
5.84018e-06
5.84053e-06
5.84089e-06
5.84125e-06
5.8416e-06
5.84196e-06
5.84232e-06
5.84268e-06
5.84303e-06
5.84341e-06
5.84011e-06
5.84034e-06
5.84057e-06
5.8408e-06
5.84103e-06
5.84126e-06
5.84149e-06
5.84173e-06
5.84196e-06
5.84219e-06
5.84004e-06
5.84012e-06
5.8402e-06
5.84028e-06
5.84036e-06
5.84042e-06
5.84047e-06
5.8405e-06
5.84052e-06
5.84056e-06
5.85451e-06
5.85479e-06
5.85504e-06
5.85528e-06
5.85551e-06
5.85575e-06
5.85599e-06
5.85624e-06
5.8565e-06
5.85676e-06
5.85697e-06
5.85716e-06
5.85736e-06
5.85755e-06
5.85774e-06
5.85794e-06
5.85813e-06
5.85833e-06
5.85852e-06
5.85873e-06
5.85893e-06
5.85915e-06
5.85937e-06
5.85961e-06
5.85986e-06
5.86012e-06
5.8604e-06
5.8607e-06
5.86102e-06
5.86137e-06
5.86176e-06
5.86221e-06
5.86272e-06
5.86335e-06
5.86415e-06
5.86488e-06
5.86555e-06
5.86593e-06
5.86617e-06
5.86637e-06
5.86655e-06
5.86673e-06
5.86691e-06
5.86708e-06
5.86726e-06
5.86745e-06
5.86763e-06
5.86783e-06
5.86798e-06
5.86823e-06
5.86862e-06
5.86913e-06
5.86975e-06
5.87044e-06
5.87116e-06
5.87192e-06
5.87266e-06
5.87346e-06
5.87412e-06
5.85491e-06
5.8553e-06
5.85572e-06
5.85612e-06
5.85649e-06
5.85682e-06
5.85712e-06
5.85738e-06
5.85764e-06
5.85789e-06
5.85815e-06
5.85839e-06
5.85864e-06
5.85889e-06
5.85913e-06
5.85938e-06
5.85962e-06
5.85986e-06
5.86009e-06
5.86033e-06
5.86056e-06
5.86079e-06
5.86101e-06
5.86124e-06
5.86146e-06
5.86168e-06
5.86191e-06
5.86213e-06
5.86235e-06
5.86257e-06
5.86279e-06
5.86302e-06
5.86325e-06
5.86346e-06
5.86378e-06
5.86422e-06
5.86467e-06
5.86501e-06
5.86528e-06
5.86553e-06
5.86577e-06
5.86601e-06
5.86625e-06
5.86649e-06
5.86673e-06
5.86697e-06
5.8672e-06
5.86744e-06
5.86766e-06
5.86792e-06
5.86827e-06
5.86873e-06
5.86928e-06
5.8699e-06
5.87055e-06
5.87123e-06
5.87192e-06
5.8726e-06
5.87336e-06
5.85504e-06
5.85531e-06
5.85557e-06
5.85583e-06
5.85609e-06
5.85634e-06
5.85659e-06
5.85684e-06
5.85708e-06
5.85733e-06
5.85757e-06
5.85781e-06
5.85805e-06
5.85829e-06
5.85853e-06
5.85877e-06
5.85901e-06
5.85926e-06
5.8595e-06
5.85974e-06
5.85998e-06
5.86022e-06
5.86047e-06
5.86071e-06
5.86096e-06
5.8612e-06
5.86144e-06
5.8617e-06
5.86198e-06
5.86228e-06
5.86262e-06
5.863e-06
5.86343e-06
5.86394e-06
5.86454e-06
5.86514e-06
5.86572e-06
5.86623e-06
5.86669e-06
5.86702e-06
5.86728e-06
5.86752e-06
5.86776e-06
5.86799e-06
5.86823e-06
5.86846e-06
5.86869e-06
5.86893e-06
5.86916e-06
5.86939e-06
5.86962e-06
5.86986e-06
5.87008e-06
5.87035e-06
5.87064e-06
5.87105e-06
5.87145e-06
5.872e-06
5.87241e-06
5.85467e-06
5.85491e-06
5.85516e-06
5.8554e-06
5.85564e-06
5.85588e-06
5.85612e-06
5.85636e-06
5.85661e-06
5.85685e-06
5.85709e-06
5.85733e-06
5.85757e-06
5.85781e-06
5.85806e-06
5.8583e-06
5.85854e-06
5.85878e-06
5.85902e-06
5.85927e-06
5.85951e-06
5.85975e-06
5.85999e-06
5.86023e-06
5.86047e-06
5.86071e-06
5.86095e-06
5.86119e-06
5.86143e-06
5.86167e-06
5.86192e-06
5.86216e-06
5.8624e-06
5.86265e-06
5.86296e-06
5.86335e-06
5.86376e-06
5.86416e-06
5.86448e-06
5.86476e-06
5.86502e-06
5.86528e-06
5.86553e-06
5.86578e-06
5.86603e-06
5.86629e-06
5.86654e-06
5.86679e-06
5.86705e-06
5.8673e-06
5.86755e-06
5.8678e-06
5.86806e-06
5.86835e-06
5.86869e-06
5.86908e-06
5.86952e-06
5.86997e-06
5.87051e-06
5.85401e-06
5.85425e-06
5.85448e-06
5.85471e-06
5.85493e-06
5.85516e-06
5.85539e-06
5.85561e-06
5.85584e-06
5.85607e-06
5.8563e-06
5.85652e-06
5.85675e-06
5.85698e-06
5.8572e-06
5.85743e-06
5.85766e-06
5.85788e-06
5.85811e-06
5.85834e-06
5.85857e-06
5.8588e-06
5.85902e-06
5.85925e-06
5.85948e-06
5.85971e-06
5.85994e-06
5.86017e-06
5.8604e-06
5.86063e-06
5.86086e-06
5.8611e-06
5.86135e-06
5.86164e-06
5.86196e-06
5.86233e-06
5.86276e-06
5.86318e-06
5.8636e-06
5.86398e-06
5.86434e-06
5.86462e-06
5.86487e-06
5.86511e-06
5.86535e-06
5.86558e-06
5.86582e-06
5.86605e-06
5.86629e-06
5.86653e-06
5.86676e-06
5.867e-06
5.86724e-06
5.86748e-06
5.86772e-06
5.86797e-06
5.86818e-06
5.86849e-06
5.86878e-06
5.85306e-06
5.85328e-06
5.8535e-06
5.85371e-06
5.85392e-06
5.85413e-06
5.85434e-06
5.85456e-06
5.85477e-06
5.85498e-06
5.85519e-06
5.85541e-06
5.85562e-06
5.85583e-06
5.85605e-06
5.85626e-06
5.85647e-06
5.85669e-06
5.8569e-06
5.85712e-06
5.85733e-06
5.85755e-06
5.85776e-06
5.85798e-06
5.8582e-06
5.85841e-06
5.85863e-06
5.85885e-06
5.85906e-06
5.85928e-06
5.8595e-06
5.85971e-06
5.85993e-06
5.86015e-06
5.86037e-06
5.86059e-06
5.86084e-06
5.86113e-06
5.86144e-06
5.86173e-06
5.86198e-06
5.86222e-06
5.86245e-06
5.86267e-06
5.8629e-06
5.86313e-06
5.86336e-06
5.86359e-06
5.86382e-06
5.86405e-06
5.86428e-06
5.86451e-06
5.86474e-06
5.86497e-06
5.86521e-06
5.86544e-06
5.86568e-06
5.86593e-06
5.86626e-06
5.85199e-06
5.85219e-06
5.85239e-06
5.85258e-06
5.85278e-06
5.85297e-06
5.85316e-06
5.85336e-06
5.85355e-06
5.85375e-06
5.85394e-06
5.85413e-06
5.85433e-06
5.85452e-06
5.85472e-06
5.85491e-06
5.85511e-06
5.8553e-06
5.8555e-06
5.85569e-06
5.85589e-06
5.85608e-06
5.85628e-06
5.85648e-06
5.85668e-06
5.85687e-06
5.85707e-06
5.85727e-06
5.85747e-06
5.85767e-06
5.85787e-06
5.85807e-06
5.85827e-06
5.85847e-06
5.85867e-06
5.85888e-06
5.85908e-06
5.85929e-06
5.85953e-06
5.85981e-06
5.86012e-06
5.86041e-06
5.86069e-06
5.86093e-06
5.86115e-06
5.86136e-06
5.86157e-06
5.86178e-06
5.86199e-06
5.8622e-06
5.86241e-06
5.86262e-06
5.86284e-06
5.86305e-06
5.86326e-06
5.86348e-06
5.86369e-06
5.86391e-06
5.86413e-06
5.85082e-06
5.851e-06
5.85118e-06
5.85135e-06
5.85153e-06
5.8517e-06
5.85188e-06
5.85205e-06
5.85223e-06
5.8524e-06
5.85258e-06
5.85275e-06
5.85293e-06
5.8531e-06
5.85328e-06
5.85346e-06
5.85363e-06
5.85381e-06
5.85399e-06
5.85417e-06
5.85434e-06
5.85452e-06
5.8547e-06
5.85488e-06
5.85506e-06
5.85524e-06
5.85542e-06
5.8556e-06
5.85578e-06
5.85596e-06
5.85614e-06
5.85632e-06
5.8565e-06
5.85668e-06
5.85687e-06
5.85705e-06
5.85723e-06
5.85742e-06
5.8576e-06
5.85778e-06
5.85799e-06
5.85821e-06
5.85841e-06
5.8586e-06
5.85879e-06
5.85898e-06
5.85917e-06
5.85936e-06
5.85955e-06
5.85974e-06
5.85994e-06
5.86013e-06
5.86032e-06
5.86052e-06
5.86071e-06
5.86091e-06
5.86111e-06
5.8613e-06
5.86151e-06
5.84962e-06
5.84978e-06
5.84993e-06
5.85009e-06
5.85024e-06
5.8504e-06
5.85055e-06
5.85071e-06
5.85086e-06
5.85102e-06
5.85117e-06
5.85133e-06
5.85149e-06
5.85164e-06
5.8518e-06
5.85196e-06
5.85211e-06
5.85227e-06
5.85243e-06
5.85258e-06
5.85274e-06
5.8529e-06
5.85306e-06
5.85322e-06
5.85337e-06
5.85353e-06
5.85369e-06
5.85385e-06
5.85401e-06
5.85417e-06
5.85433e-06
5.8545e-06
5.85466e-06
5.85482e-06
5.85498e-06
5.85515e-06
5.85531e-06
5.85547e-06
5.85564e-06
5.8558e-06
5.85597e-06
5.85613e-06
5.8563e-06
5.85647e-06
5.85664e-06
5.85683e-06
5.85701e-06
5.85718e-06
5.85736e-06
5.85753e-06
5.8577e-06
5.85787e-06
5.85804e-06
5.85821e-06
5.85839e-06
5.85856e-06
5.85874e-06
5.85891e-06
5.85909e-06
5.8484e-06
5.84854e-06
5.84868e-06
5.84881e-06
5.84895e-06
5.84908e-06
5.84922e-06
5.84936e-06
5.84949e-06
5.84963e-06
5.84976e-06
5.8499e-06
5.85004e-06
5.85017e-06
5.85031e-06
5.85045e-06
5.85058e-06
5.85072e-06
5.85086e-06
5.851e-06
5.85114e-06
5.85127e-06
5.85141e-06
5.85155e-06
5.85169e-06
5.85183e-06
5.85197e-06
5.85211e-06
5.85225e-06
5.85239e-06
5.85253e-06
5.85267e-06
5.85281e-06
5.85296e-06
5.8531e-06
5.85324e-06
5.85338e-06
5.85353e-06
5.85367e-06
5.85382e-06
5.85396e-06
5.85411e-06
5.85425e-06
5.8544e-06
5.85454e-06
5.85469e-06
5.85484e-06
5.85499e-06
5.85513e-06
5.85528e-06
5.85543e-06
5.85558e-06
5.85573e-06
5.85588e-06
5.85603e-06
5.85619e-06
5.85634e-06
5.85649e-06
5.85665e-06
5.84719e-06
5.84731e-06
5.84743e-06
5.84754e-06
5.84766e-06
5.84778e-06
5.84789e-06
5.84801e-06
5.84812e-06
5.84824e-06
5.84836e-06
5.84847e-06
5.84859e-06
5.84871e-06
5.84882e-06
5.84894e-06
5.84906e-06
5.84918e-06
5.8493e-06
5.84941e-06
5.84953e-06
5.84965e-06
5.84977e-06
5.84989e-06
5.85001e-06
5.85013e-06
5.85025e-06
5.85037e-06
5.85049e-06
5.85061e-06
5.85073e-06
5.85085e-06
5.85097e-06
5.85109e-06
5.85121e-06
5.85134e-06
5.85146e-06
5.85158e-06
5.85171e-06
5.85183e-06
5.85195e-06
5.85208e-06
5.8522e-06
5.85233e-06
5.85245e-06
5.85258e-06
5.85271e-06
5.85283e-06
5.85296e-06
5.85309e-06
5.85321e-06
5.85334e-06
5.85347e-06
5.8536e-06
5.85373e-06
5.85386e-06
5.85399e-06
5.85412e-06
5.85426e-06
5.846e-06
5.8461e-06
5.8462e-06
5.8463e-06
5.8464e-06
5.8465e-06
5.84659e-06
5.84669e-06
5.84679e-06
5.84688e-06
5.84698e-06
5.84708e-06
5.84717e-06
5.84727e-06
5.84737e-06
5.84747e-06
5.84757e-06
5.84766e-06
5.84776e-06
5.84786e-06
5.84796e-06
5.84806e-06
5.84816e-06
5.84826e-06
5.84836e-06
5.84846e-06
5.84856e-06
5.84866e-06
5.84876e-06
5.84886e-06
5.84896e-06
5.84906e-06
5.84916e-06
5.84927e-06
5.84937e-06
5.84947e-06
5.84957e-06
5.84968e-06
5.84978e-06
5.84988e-06
5.84999e-06
5.85009e-06
5.8502e-06
5.8503e-06
5.85041e-06
5.85051e-06
5.85062e-06
5.85072e-06
5.85083e-06
5.85094e-06
5.85104e-06
5.85115e-06
5.85126e-06
5.85137e-06
5.85148e-06
5.85159e-06
5.8517e-06
5.85181e-06
5.85192e-06
5.84481e-06
5.84489e-06
5.84497e-06
5.84505e-06
5.84512e-06
5.8452e-06
5.84528e-06
5.84536e-06
5.84543e-06
5.8455e-06
5.84557e-06
5.84564e-06
5.84571e-06
5.84578e-06
5.84586e-06
5.84594e-06
5.84602e-06
5.8461e-06
5.84618e-06
5.84626e-06
5.84634e-06
5.84642e-06
5.8465e-06
5.84658e-06
5.84666e-06
5.84674e-06
5.84682e-06
5.8469e-06
5.84698e-06
5.84706e-06
5.84714e-06
5.84722e-06
5.8473e-06
5.84739e-06
5.84747e-06
5.84755e-06
5.84763e-06
5.84771e-06
5.8478e-06
5.84788e-06
5.84796e-06
5.84805e-06
5.84813e-06
5.84821e-06
5.8483e-06
5.84838e-06
5.84847e-06
5.84855e-06
5.84864e-06
5.84872e-06
5.84881e-06
5.84889e-06
5.84898e-06
5.84907e-06
5.84916e-06
5.84924e-06
5.84933e-06
5.84942e-06
5.84951e-06
5.84363e-06
5.84369e-06
5.84375e-06
5.84381e-06
5.84387e-06
5.84393e-06
5.84399e-06
5.84405e-06
5.84411e-06
5.84417e-06
5.84423e-06
5.84429e-06
5.84435e-06
5.84441e-06
5.84447e-06
5.84453e-06
5.84459e-06
5.84465e-06
5.84471e-06
5.84477e-06
5.84483e-06
5.84489e-06
5.84495e-06
5.84501e-06
5.84507e-06
5.84513e-06
5.8452e-06
5.84526e-06
5.84532e-06
5.84539e-06
5.84545e-06
5.84552e-06
5.84559e-06
5.84566e-06
5.84573e-06
5.8458e-06
5.84587e-06
5.84594e-06
5.84602e-06
5.8461e-06
5.84617e-06
5.84625e-06
5.84634e-06
5.84642e-06
5.84651e-06
5.84659e-06
5.84669e-06
5.84678e-06
5.84687e-06
5.84696e-06
5.84705e-06
5.84713e-06
5.84721e-06
5.84728e-06
5.84735e-06
5.84742e-06
5.84748e-06
5.84755e-06
5.84762e-06
5.84233e-06
5.84237e-06
5.84241e-06
5.84244e-06
5.84248e-06
5.84252e-06
5.84256e-06
5.8426e-06
5.84263e-06
5.84267e-06
5.84271e-06
5.84275e-06
5.84279e-06
5.84283e-06
5.84287e-06
5.8429e-06
5.84294e-06
5.84298e-06
5.84302e-06
5.84306e-06
5.8431e-06
5.84314e-06
5.84318e-06
5.84321e-06
5.84325e-06
5.84328e-06
5.8433e-06
5.84333e-06
5.84336e-06
5.84339e-06
5.84343e-06
5.84347e-06
5.84352e-06
5.84356e-06
5.84361e-06
5.84366e-06
5.84371e-06
5.84376e-06
5.84381e-06
5.84386e-06
5.84391e-06
5.84397e-06
5.84403e-06
5.84408e-06
5.84414e-06
5.8442e-06
5.84427e-06
5.84434e-06
5.8444e-06
5.84447e-06
5.84454e-06
5.8446e-06
5.84466e-06
5.84472e-06
5.84478e-06
5.84483e-06
5.84488e-06
5.84492e-06
5.84497e-06
5.84059e-06
5.84061e-06
5.84064e-06
5.84066e-06
5.84068e-06
5.8407e-06
5.84072e-06
5.84074e-06
5.84076e-06
5.84077e-06
5.84079e-06
5.8408e-06
5.84081e-06
5.84082e-06
5.84083e-06
5.84084e-06
5.84084e-06
5.84085e-06
5.84085e-06
5.84085e-06
5.84085e-06
5.84086e-06
5.84086e-06
5.84086e-06
5.84087e-06
5.84088e-06
5.84089e-06
5.8409e-06
5.84091e-06
5.84092e-06
5.84093e-06
5.84095e-06
5.84096e-06
5.84098e-06
5.841e-06
5.84102e-06
5.84104e-06
5.84106e-06
5.84109e-06
5.84111e-06
5.84113e-06
5.84115e-06
5.84117e-06
5.84119e-06
5.84121e-06
5.84122e-06
5.84124e-06
5.84125e-06
5.84126e-06
5.84127e-06
5.84128e-06
5.84129e-06
5.8413e-06
5.84131e-06
5.84132e-06
5.84132e-06
5.84132e-06
5.84133e-06
5.84134e-06
5.87613e-06
5.87863e-06
5.8806e-06
5.88213e-06
5.88381e-06
5.88566e-06
5.88758e-06
5.88954e-06
5.89152e-06
5.89351e-06
5.89548e-06
5.89747e-06
5.89949e-06
5.9015e-06
5.90351e-06
5.9055e-06
5.9075e-06
5.90949e-06
5.91149e-06
5.91349e-06
5.91549e-06
5.9175e-06
5.91949e-06
5.92157e-06
5.92328e-06
5.92656e-06
5.87479e-06
5.8767e-06
5.87847e-06
5.87993e-06
5.88111e-06
5.88238e-06
5.88372e-06
5.88507e-06
5.88644e-06
5.88781e-06
5.8892e-06
5.89051e-06
5.89151e-06
5.89258e-06
5.89372e-06
5.89493e-06
5.8962e-06
5.89753e-06
5.89891e-06
5.90029e-06
5.90167e-06
5.90306e-06
5.90444e-06
5.90587e-06
5.90706e-06
5.9093e-06
5.87331e-06
5.87466e-06
5.87631e-06
5.87775e-06
5.87891e-06
5.87996e-06
5.88112e-06
5.88236e-06
5.88362e-06
5.8849e-06
5.88619e-06
5.88748e-06
5.88875e-06
5.88989e-06
5.89106e-06
5.8923e-06
5.89358e-06
5.89488e-06
5.89618e-06
5.89749e-06
5.89879e-06
5.9001e-06
5.90139e-06
5.90274e-06
5.90385e-06
5.90599e-06
5.87151e-06
5.873e-06
5.87445e-06
5.87599e-06
5.87746e-06
5.8788e-06
5.88008e-06
5.88134e-06
5.88268e-06
5.88406e-06
5.88547e-06
5.88687e-06
5.88829e-06
5.88969e-06
5.8911e-06
5.89252e-06
5.89393e-06
5.89535e-06
5.89678e-06
5.8982e-06
5.89962e-06
5.90105e-06
5.90246e-06
5.90394e-06
5.90514e-06
5.90745e-06
5.86959e-06
5.87093e-06
5.87209e-06
5.87355e-06
5.87501e-06
5.87632e-06
5.87751e-06
5.87865e-06
5.87985e-06
5.88109e-06
5.88235e-06
5.88361e-06
5.88488e-06
5.88615e-06
5.88742e-06
5.88869e-06
5.88997e-06
5.89124e-06
5.89252e-06
5.8938e-06
5.89507e-06
5.89635e-06
5.89762e-06
5.89895e-06
5.90004e-06
5.90213e-06
5.86706e-06
5.86834e-06
5.86959e-06
5.87083e-06
5.87214e-06
5.87346e-06
5.8747e-06
5.87587e-06
5.87702e-06
5.87817e-06
5.87933e-06
5.88054e-06
5.88176e-06
5.88301e-06
5.88425e-06
5.8855e-06
5.88675e-06
5.888e-06
5.88925e-06
5.8905e-06
5.89176e-06
5.89301e-06
5.89423e-06
5.89551e-06
5.89655e-06
5.89857e-06
5.86482e-06
5.86594e-06
5.86707e-06
5.86814e-06
5.8693e-06
5.87049e-06
5.87166e-06
5.87276e-06
5.87381e-06
5.87484e-06
5.87589e-06
5.87697e-06
5.87807e-06
5.87918e-06
5.88029e-06
5.8814e-06
5.88251e-06
5.88362e-06
5.88473e-06
5.88585e-06
5.88696e-06
5.88808e-06
5.88918e-06
5.89034e-06
5.89129e-06
5.89311e-06
5.86213e-06
5.86318e-06
5.86421e-06
5.86524e-06
5.86627e-06
5.86732e-06
5.86837e-06
5.86942e-06
5.87043e-06
5.87141e-06
5.87237e-06
5.87333e-06
5.87429e-06
5.87527e-06
5.87626e-06
5.87725e-06
5.87826e-06
5.87926e-06
5.88027e-06
5.88128e-06
5.88228e-06
5.88328e-06
5.88428e-06
5.88532e-06
5.88618e-06
5.88785e-06
5.85964e-06
5.86055e-06
5.86146e-06
5.86236e-06
5.86325e-06
5.86415e-06
5.86505e-06
5.86594e-06
5.86685e-06
5.86773e-06
5.86859e-06
5.86944e-06
5.87029e-06
5.87116e-06
5.87204e-06
5.87293e-06
5.87383e-06
5.87473e-06
5.87563e-06
5.87653e-06
5.87744e-06
5.87834e-06
5.87924e-06
5.88017e-06
5.88093e-06
5.88239e-06
5.85713e-06
5.85794e-06
5.85875e-06
5.85955e-06
5.86035e-06
5.86114e-06
5.86194e-06
5.86274e-06
5.86354e-06
5.86433e-06
5.86513e-06
5.86593e-06
5.86672e-06
5.86748e-06
5.86824e-06
5.86899e-06
5.86975e-06
5.87051e-06
5.87127e-06
5.87204e-06
5.87281e-06
5.87358e-06
5.87434e-06
5.87514e-06
5.87581e-06
5.8771e-06
5.85467e-06
5.85536e-06
5.85604e-06
5.85672e-06
5.8574e-06
5.85807e-06
5.85875e-06
5.85943e-06
5.8601e-06
5.86078e-06
5.86146e-06
5.86214e-06
5.86281e-06
5.86349e-06
5.86415e-06
5.8648e-06
5.86545e-06
5.8661e-06
5.86675e-06
5.86741e-06
5.86807e-06
5.86873e-06
5.86938e-06
5.87007e-06
5.87064e-06
5.87175e-06
5.85226e-06
5.85284e-06
5.85342e-06
5.85399e-06
5.85457e-06
5.85514e-06
5.85572e-06
5.85629e-06
5.85686e-06
5.85743e-06
5.85801e-06
5.85858e-06
5.85915e-06
5.85972e-06
5.8603e-06
5.86087e-06
5.86144e-06
5.86201e-06
5.86256e-06
5.8631e-06
5.86365e-06
5.8642e-06
5.86475e-06
5.86532e-06
5.86579e-06
5.86672e-06
5.84978e-06
5.85025e-06
5.85071e-06
5.85116e-06
5.85162e-06
5.85208e-06
5.85254e-06
5.853e-06
5.85345e-06
5.85391e-06
5.85437e-06
5.85483e-06
5.85528e-06
5.85574e-06
5.8562e-06
5.85666e-06
5.85712e-06
5.85757e-06
5.85802e-06
5.85846e-06
5.85891e-06
5.85935e-06
5.85979e-06
5.86026e-06
5.86064e-06
5.86139e-06
5.84783e-06
5.84818e-06
5.84853e-06
5.84888e-06
5.84924e-06
5.84959e-06
5.84994e-06
5.85029e-06
5.85064e-06
5.85099e-06
5.85134e-06
5.8517e-06
5.85205e-06
5.8524e-06
5.85275e-06
5.8531e-06
5.85345e-06
5.85379e-06
5.85413e-06
5.85447e-06
5.85481e-06
5.85515e-06
5.85548e-06
5.85584e-06
5.85613e-06
5.8567e-06
5.84511e-06
5.84534e-06
5.84557e-06
5.8458e-06
5.84604e-06
5.84626e-06
5.84649e-06
5.84672e-06
5.84695e-06
5.84718e-06
5.84741e-06
5.84764e-06
5.84787e-06
5.8481e-06
5.84833e-06
5.84856e-06
5.84879e-06
5.84902e-06
5.84925e-06
5.84947e-06
5.8497e-06
5.84992e-06
5.85014e-06
5.85038e-06
5.85057e-06
5.85095e-06
5.84137e-06
5.84145e-06
5.84154e-06
5.84163e-06
5.84171e-06
5.84181e-06
5.84191e-06
5.84202e-06
5.84214e-06
5.84226e-06
5.84238e-06
5.84249e-06
5.84261e-06
5.84272e-06
5.84282e-06
5.84293e-06
5.84303e-06
5.84312e-06
5.84322e-06
5.84331e-06
5.8434e-06
5.84349e-06
5.84358e-06
5.84367e-06
5.84377e-06
5.84381e-06
5.84071e-06
5.84213e-06
5.84356e-06
5.84499e-06
5.84641e-06
5.84784e-06
5.84926e-06
5.85069e-06
5.85205e-06
5.85352e-06
5.84074e-06
5.84221e-06
5.8437e-06
5.84518e-06
5.84666e-06
5.84814e-06
5.84963e-06
5.85108e-06
5.85262e-06
5.85392e-06
5.84074e-06
5.84222e-06
5.84371e-06
5.84519e-06
5.84668e-06
5.84817e-06
5.84965e-06
5.85114e-06
5.85263e-06
5.85412e-06
5.84072e-06
5.84216e-06
5.84361e-06
5.84506e-06
5.84651e-06
5.84796e-06
5.84941e-06
5.85086e-06
5.85231e-06
5.85378e-06
5.84069e-06
5.84206e-06
5.84344e-06
5.84481e-06
5.84619e-06
5.84757e-06
5.84895e-06
5.85035e-06
5.85171e-06
5.85314e-06
5.84064e-06
5.84192e-06
5.84321e-06
5.84449e-06
5.84578e-06
5.84707e-06
5.84836e-06
5.84966e-06
5.85093e-06
5.85226e-06
5.84059e-06
5.84176e-06
5.84294e-06
5.84412e-06
5.8453e-06
5.84648e-06
5.84766e-06
5.84886e-06
5.85003e-06
5.85126e-06
5.84053e-06
5.84159e-06
5.84266e-06
5.84372e-06
5.84479e-06
5.84585e-06
5.84692e-06
5.848e-06
5.84906e-06
5.85016e-06
5.84047e-06
5.84142e-06
5.84236e-06
5.84331e-06
5.84425e-06
5.8452e-06
5.84615e-06
5.84711e-06
5.84805e-06
5.84903e-06
5.84041e-06
5.84124e-06
5.84206e-06
5.84289e-06
5.84372e-06
5.84455e-06
5.84537e-06
5.84621e-06
5.84703e-06
5.84789e-06
5.84035e-06
5.84106e-06
5.84177e-06
5.84247e-06
5.84318e-06
5.84389e-06
5.8446e-06
5.84532e-06
5.84602e-06
5.84676e-06
5.84029e-06
5.84088e-06
5.84147e-06
5.84207e-06
5.84266e-06
5.84325e-06
5.84384e-06
5.84444e-06
5.84502e-06
5.84564e-06
5.84024e-06
5.84071e-06
5.84118e-06
5.84166e-06
5.84213e-06
5.84261e-06
5.84308e-06
5.84356e-06
5.84404e-06
5.84452e-06
5.84018e-06
5.84053e-06
5.84089e-06
5.84125e-06
5.8416e-06
5.84196e-06
5.84232e-06
5.84268e-06
5.84303e-06
5.84341e-06
5.84011e-06
5.84034e-06
5.84057e-06
5.8408e-06
5.84103e-06
5.84126e-06
5.84149e-06
5.84173e-06
5.84196e-06
5.84219e-06
5.84004e-06
5.84012e-06
5.8402e-06
5.84028e-06
5.84036e-06
5.84042e-06
5.84047e-06
5.8405e-06
5.84052e-06
5.84056e-06
5.8545e-06
5.85478e-06
5.85504e-06
5.85527e-06
5.85551e-06
5.85574e-06
5.85598e-06
5.85623e-06
5.85649e-06
5.85675e-06
5.85696e-06
5.85716e-06
5.85735e-06
5.85754e-06
5.85774e-06
5.85793e-06
5.85813e-06
5.85832e-06
5.85852e-06
5.85872e-06
5.85893e-06
5.85915e-06
5.85937e-06
5.85961e-06
5.85986e-06
5.86012e-06
5.8604e-06
5.8607e-06
5.86102e-06
5.86138e-06
5.86177e-06
5.86221e-06
5.86273e-06
5.86336e-06
5.86416e-06
5.86488e-06
5.86556e-06
5.86594e-06
5.86619e-06
5.86638e-06
5.86657e-06
5.86674e-06
5.86692e-06
5.8671e-06
5.86728e-06
5.86747e-06
5.86765e-06
5.86785e-06
5.868e-06
5.86825e-06
5.86864e-06
5.86916e-06
5.86977e-06
5.87046e-06
5.87119e-06
5.87195e-06
5.87268e-06
5.87349e-06
5.87415e-06
5.8549e-06
5.8553e-06
5.85571e-06
5.85611e-06
5.85648e-06
5.85682e-06
5.85712e-06
5.85738e-06
5.85763e-06
5.85789e-06
5.85814e-06
5.85839e-06
5.85864e-06
5.85889e-06
5.85913e-06
5.85938e-06
5.85962e-06
5.85986e-06
5.86009e-06
5.86033e-06
5.86056e-06
5.86079e-06
5.86101e-06
5.86124e-06
5.86146e-06
5.86169e-06
5.86191e-06
5.86213e-06
5.86235e-06
5.86258e-06
5.8628e-06
5.86302e-06
5.86326e-06
5.86347e-06
5.86379e-06
5.86423e-06
5.86468e-06
5.86502e-06
5.86529e-06
5.86554e-06
5.86578e-06
5.86602e-06
5.86626e-06
5.8665e-06
5.86674e-06
5.86698e-06
5.86722e-06
5.86746e-06
5.86768e-06
5.86793e-06
5.86829e-06
5.86875e-06
5.8693e-06
5.86991e-06
5.87057e-06
5.87125e-06
5.87194e-06
5.87262e-06
5.87337e-06
5.85504e-06
5.8553e-06
5.85557e-06
5.85582e-06
5.85608e-06
5.85633e-06
5.85659e-06
5.85683e-06
5.85708e-06
5.85732e-06
5.85756e-06
5.85781e-06
5.85805e-06
5.85829e-06
5.85853e-06
5.85877e-06
5.85901e-06
5.85925e-06
5.8595e-06
5.85974e-06
5.85998e-06
5.86022e-06
5.86047e-06
5.86071e-06
5.86096e-06
5.8612e-06
5.86145e-06
5.86171e-06
5.86198e-06
5.86229e-06
5.86263e-06
5.863e-06
5.86344e-06
5.86394e-06
5.86454e-06
5.86515e-06
5.86573e-06
5.86623e-06
5.8667e-06
5.86703e-06
5.86729e-06
5.86753e-06
5.86777e-06
5.868e-06
5.86824e-06
5.86847e-06
5.86871e-06
5.86894e-06
5.86917e-06
5.86941e-06
5.86964e-06
5.86988e-06
5.87009e-06
5.87036e-06
5.87066e-06
5.87107e-06
5.87146e-06
5.87201e-06
5.87242e-06
5.85466e-06
5.85491e-06
5.85515e-06
5.85539e-06
5.85564e-06
5.85588e-06
5.85612e-06
5.85636e-06
5.8566e-06
5.85684e-06
5.85708e-06
5.85733e-06
5.85757e-06
5.85781e-06
5.85805e-06
5.8583e-06
5.85854e-06
5.85878e-06
5.85902e-06
5.85927e-06
5.85951e-06
5.85975e-06
5.85999e-06
5.86023e-06
5.86047e-06
5.86071e-06
5.86096e-06
5.8612e-06
5.86144e-06
5.86168e-06
5.86192e-06
5.86216e-06
5.8624e-06
5.86265e-06
5.86296e-06
5.86335e-06
5.86377e-06
5.86416e-06
5.86449e-06
5.86477e-06
5.86503e-06
5.86529e-06
5.86554e-06
5.86579e-06
5.86605e-06
5.8663e-06
5.86655e-06
5.8668e-06
5.86706e-06
5.86731e-06
5.86757e-06
5.86782e-06
5.86807e-06
5.86836e-06
5.8687e-06
5.86909e-06
5.86953e-06
5.86998e-06
5.87052e-06
5.854e-06
5.85424e-06
5.85447e-06
5.8547e-06
5.85493e-06
5.85516e-06
5.85538e-06
5.85561e-06
5.85584e-06
5.85606e-06
5.85629e-06
5.85652e-06
5.85675e-06
5.85697e-06
5.8572e-06
5.85743e-06
5.85766e-06
5.85788e-06
5.85811e-06
5.85834e-06
5.85857e-06
5.8588e-06
5.85902e-06
5.85925e-06
5.85948e-06
5.85971e-06
5.85994e-06
5.86017e-06
5.8604e-06
5.86064e-06
5.86087e-06
5.8611e-06
5.86136e-06
5.86165e-06
5.86197e-06
5.86234e-06
5.86276e-06
5.86319e-06
5.86361e-06
5.86398e-06
5.86434e-06
5.86463e-06
5.86488e-06
5.86512e-06
5.86536e-06
5.86559e-06
5.86583e-06
5.86606e-06
5.8663e-06
5.86654e-06
5.86678e-06
5.86701e-06
5.86725e-06
5.86749e-06
5.86773e-06
5.86798e-06
5.86819e-06
5.8685e-06
5.86879e-06
5.85306e-06
5.85328e-06
5.85349e-06
5.8537e-06
5.85391e-06
5.85413e-06
5.85434e-06
5.85455e-06
5.85476e-06
5.85498e-06
5.85519e-06
5.8554e-06
5.85562e-06
5.85583e-06
5.85604e-06
5.85626e-06
5.85647e-06
5.85669e-06
5.8569e-06
5.85712e-06
5.85733e-06
5.85755e-06
5.85777e-06
5.85798e-06
5.8582e-06
5.85841e-06
5.85863e-06
5.85885e-06
5.85907e-06
5.85928e-06
5.8595e-06
5.85972e-06
5.85994e-06
5.86016e-06
5.86037e-06
5.86059e-06
5.86084e-06
5.86114e-06
5.86144e-06
5.86174e-06
5.86199e-06
5.86223e-06
5.86245e-06
5.86268e-06
5.86291e-06
5.86314e-06
5.86337e-06
5.8636e-06
5.86383e-06
5.86406e-06
5.86429e-06
5.86452e-06
5.86475e-06
5.86499e-06
5.86522e-06
5.86545e-06
5.86569e-06
5.86595e-06
5.86627e-06
5.85199e-06
5.85219e-06
5.85239e-06
5.85258e-06
5.85277e-06
5.85297e-06
5.85316e-06
5.85335e-06
5.85355e-06
5.85374e-06
5.85394e-06
5.85413e-06
5.85433e-06
5.85452e-06
5.85471e-06
5.85491e-06
5.85511e-06
5.8553e-06
5.8555e-06
5.85569e-06
5.85589e-06
5.85608e-06
5.85628e-06
5.85648e-06
5.85668e-06
5.85687e-06
5.85707e-06
5.85727e-06
5.85747e-06
5.85767e-06
5.85787e-06
5.85807e-06
5.85827e-06
5.85848e-06
5.85868e-06
5.85888e-06
5.85908e-06
5.8593e-06
5.85953e-06
5.85982e-06
5.86012e-06
5.86041e-06
5.8607e-06
5.86094e-06
5.86116e-06
5.86137e-06
5.86158e-06
5.86179e-06
5.862e-06
5.86221e-06
5.86242e-06
5.86263e-06
5.86285e-06
5.86306e-06
5.86327e-06
5.86349e-06
5.8637e-06
5.86392e-06
5.86414e-06
5.85081e-06
5.851e-06
5.85117e-06
5.85135e-06
5.85152e-06
5.8517e-06
5.85187e-06
5.85205e-06
5.85222e-06
5.8524e-06
5.85257e-06
5.85275e-06
5.85293e-06
5.8531e-06
5.85328e-06
5.85345e-06
5.85363e-06
5.85381e-06
5.85399e-06
5.85416e-06
5.85434e-06
5.85452e-06
5.8547e-06
5.85488e-06
5.85506e-06
5.85524e-06
5.85542e-06
5.8556e-06
5.85578e-06
5.85596e-06
5.85614e-06
5.85632e-06
5.85651e-06
5.85669e-06
5.85687e-06
5.85705e-06
5.85724e-06
5.85742e-06
5.85761e-06
5.85779e-06
5.858e-06
5.85821e-06
5.85841e-06
5.85861e-06
5.8588e-06
5.85899e-06
5.85918e-06
5.85937e-06
5.85956e-06
5.85975e-06
5.85994e-06
5.86014e-06
5.86033e-06
5.86053e-06
5.86072e-06
5.86092e-06
5.86111e-06
5.86131e-06
5.86151e-06
5.84961e-06
5.84977e-06
5.84993e-06
5.85009e-06
5.85024e-06
5.8504e-06
5.85055e-06
5.85071e-06
5.85086e-06
5.85102e-06
5.85117e-06
5.85133e-06
5.85148e-06
5.85164e-06
5.8518e-06
5.85195e-06
5.85211e-06
5.85227e-06
5.85243e-06
5.85258e-06
5.85274e-06
5.8529e-06
5.85306e-06
5.85322e-06
5.85338e-06
5.85353e-06
5.85369e-06
5.85385e-06
5.85402e-06
5.85418e-06
5.85434e-06
5.8545e-06
5.85466e-06
5.85482e-06
5.85499e-06
5.85515e-06
5.85531e-06
5.85548e-06
5.85564e-06
5.85581e-06
5.85597e-06
5.85614e-06
5.85631e-06
5.85647e-06
5.85664e-06
5.85684e-06
5.85702e-06
5.85719e-06
5.85736e-06
5.85753e-06
5.8577e-06
5.85788e-06
5.85805e-06
5.85822e-06
5.85839e-06
5.85857e-06
5.85874e-06
5.85892e-06
5.8591e-06
5.8484e-06
5.84854e-06
5.84867e-06
5.84881e-06
5.84895e-06
5.84908e-06
5.84922e-06
5.84935e-06
5.84949e-06
5.84963e-06
5.84976e-06
5.8499e-06
5.85004e-06
5.85017e-06
5.85031e-06
5.85045e-06
5.85058e-06
5.85072e-06
5.85086e-06
5.851e-06
5.85114e-06
5.85127e-06
5.85141e-06
5.85155e-06
5.85169e-06
5.85183e-06
5.85197e-06
5.85211e-06
5.85225e-06
5.85239e-06
5.85253e-06
5.85268e-06
5.85282e-06
5.85296e-06
5.8531e-06
5.85324e-06
5.85339e-06
5.85353e-06
5.85368e-06
5.85382e-06
5.85396e-06
5.85411e-06
5.85426e-06
5.8544e-06
5.85455e-06
5.85469e-06
5.85484e-06
5.85499e-06
5.85514e-06
5.85529e-06
5.85544e-06
5.85559e-06
5.85574e-06
5.85589e-06
5.85604e-06
5.85619e-06
5.85635e-06
5.8565e-06
5.85666e-06
5.84719e-06
5.84731e-06
5.84742e-06
5.84754e-06
5.84766e-06
5.84777e-06
5.84789e-06
5.84801e-06
5.84812e-06
5.84824e-06
5.84836e-06
5.84847e-06
5.84859e-06
5.84871e-06
5.84882e-06
5.84894e-06
5.84906e-06
5.84918e-06
5.8493e-06
5.84941e-06
5.84953e-06
5.84965e-06
5.84977e-06
5.84989e-06
5.85001e-06
5.85013e-06
5.85025e-06
5.85037e-06
5.85049e-06
5.85061e-06
5.85073e-06
5.85085e-06
5.85097e-06
5.85109e-06
5.85122e-06
5.85134e-06
5.85146e-06
5.85159e-06
5.85171e-06
5.85183e-06
5.85196e-06
5.85208e-06
5.85221e-06
5.85233e-06
5.85246e-06
5.85258e-06
5.85271e-06
5.85284e-06
5.85296e-06
5.85309e-06
5.85322e-06
5.85335e-06
5.85348e-06
5.85361e-06
5.85374e-06
5.85387e-06
5.854e-06
5.85413e-06
5.85426e-06
5.846e-06
5.8461e-06
5.8462e-06
5.8463e-06
5.8464e-06
5.84649e-06
5.84659e-06
5.84669e-06
5.84679e-06
5.84688e-06
5.84698e-06
5.84708e-06
5.84717e-06
5.84727e-06
5.84737e-06
5.84747e-06
5.84757e-06
5.84766e-06
5.84776e-06
5.84786e-06
5.84796e-06
5.84806e-06
5.84816e-06
5.84826e-06
5.84836e-06
5.84846e-06
5.84856e-06
5.84866e-06
5.84876e-06
5.84886e-06
5.84896e-06
5.84906e-06
5.84917e-06
5.84927e-06
5.84937e-06
5.84947e-06
5.84958e-06
5.84968e-06
5.84978e-06
5.84989e-06
5.84999e-06
5.85009e-06
5.8502e-06
5.8503e-06
5.85041e-06
5.85051e-06
5.85062e-06
5.85073e-06
5.85083e-06
5.85094e-06
5.85105e-06
5.85116e-06
5.85126e-06
5.85137e-06
5.85148e-06
5.85159e-06
5.8517e-06
5.85181e-06
5.85192e-06
5.84481e-06
5.84489e-06
5.84497e-06
5.84504e-06
5.84512e-06
5.8452e-06
5.84528e-06
5.84536e-06
5.84543e-06
5.8455e-06
5.84557e-06
5.84564e-06
5.84571e-06
5.84578e-06
5.84586e-06
5.84594e-06
5.84602e-06
5.8461e-06
5.84618e-06
5.84626e-06
5.84634e-06
5.84642e-06
5.8465e-06
5.84658e-06
5.84666e-06
5.84674e-06
5.84682e-06
5.8469e-06
5.84698e-06
5.84706e-06
5.84714e-06
5.84722e-06
5.84731e-06
5.84739e-06
5.84747e-06
5.84755e-06
5.84763e-06
5.84772e-06
5.8478e-06
5.84788e-06
5.84797e-06
5.84805e-06
5.84813e-06
5.84822e-06
5.8483e-06
5.84838e-06
5.84847e-06
5.84855e-06
5.84864e-06
5.84872e-06
5.84881e-06
5.84889e-06
5.84898e-06
5.84907e-06
5.84916e-06
5.84925e-06
5.84933e-06