/*--------------------------------*- C++ -*----------------------------------*\
| =========                 |                                                 |
| \\      /  F ield         | OpenFOAM: The Open Source CFD Toolbox           |
|  \\    /   O peration     | Version:  2412                                  |
|   \\  /    A nd           | Website:  www.openfoam.com                      |
|    \\/     M anipulation  |                                                 |
\*---------------------------------------------------------------------------*/
FoamFile
{
    version     2.0;
    format      ascii;
    arch        "LSB;label=32;scalar=64";
    class       volScalarField;
    location    "1500";
    object      p;
}
// * * * * * * * * * * * * * * * * * * * * * * * * * * * * * * * * * * * * * //

dimensions      [0 2 -2 0 0 0 0];

internalField   nonuniform List<scalar> 
14132
(
0.516416
0.518513
0.523741
0.531283
0.539716
0.547262
0.550851
0.545776
0.523482
0.476223
0.472842
0.473433
0.474857
0.476366
0.476503
0.473232
0.463315
0.442331
0.401675
0.332423
0.42852
0.42793
0.426343
0.423096
0.416912
0.405816
0.38689
0.356451
0.308838
0.24114
0.384821
0.383379
0.379447
0.372578
0.36179
0.345364
0.320844
0.285421
0.234575
0.165201
0.342835
0.340775
0.335154
0.325739
0.311881
0.292173
0.264677
0.227344
0.17744
0.114286
0.303326
0.300851
0.294106
0.283044
0.267327
0.245881
0.217239
0.180011
0.132284
0.0734044
0.266812
0.264086
0.256664
0.244654
0.227993
0.205906
0.177339
0.1414
0.0971023
0.0447708
0.233607
0.230754
0.222989
0.210547
0.193587
0.171599
0.143853
0.109845
0.0690014
0.0215792
0.203876
0.200981
0.193104
0.180579
0.163744
0.142299
0.115774
0.0839384
0.0466715
0.00464639
0.177676
0.174792
0.166946
0.15455
0.138079
0.117407
0.0922548
0.0625909
0.0284563
-0.00964488
0.155001
0.152152
0.144404
0.132232
0.116223
0.0963841
0.0725848
0.0449261
0.0137017
-0.0202989
0.135812
0.132998
0.12535
0.113408
0.0978537
0.078785
0.0561683
0.0302045
0.00117967
-0.0304419
0.120068
0.117265
0.109642
0.0978558
0.0826928
0.0643092
0.0427335
0.0182149
-0.00872444
-0.0371675
0.107764
0.104927
0.097195
0.0853645
0.0703027
0.0522249
0.0312059
0.00753717
-0.0184672
-0.0465426
0.0989752
0.0958615
0.0880006
0.0763118
0.0615367
0.0438836
0.023475
0.000593342
-0.0241156
-0.0495693
0.0941377
0.0896842
0.0806306
0.0681701
0.0528633
0.0348524
0.014244
-0.00871883
-0.0339277
-0.0613298
0.429449
0.405183
0.379652
0.354561
0.327835
0.298336
0.266171
0.231612
0.194764
0.155348
0.111974
0.0653676
0.017366
-0.0324926
-0.0847865
-0.1394
-0.19597
-0.254205
-0.313861
-0.374651
-0.436233
-0.498237
-0.560274
-0.62194
-0.682823
-0.742509
-0.800588
-0.856666
-0.910367
-0.961345
-1.00928
-1.05391
-1.09499
-1.13235
-1.16588
-1.19566
-1.22125
-1.24231
-1.25855
-1.27048
-1.27844
-1.28246
-1.28258
-1.27895
-1.27174
-1.26116
-1.24742
-1.23072
-1.21133
-1.18943
-1.16561
-1.14028
-1.11357
-1.08561
-1.05662
-1.02681
-0.996475
-0.96576
-0.934898
0.255078
0.226573
0.201024
0.176102
0.149046
0.119836
0.0891421
0.0570595
0.0240565
-0.00948112
-0.0440787
-0.0799613
-0.116977
-0.154999
-0.193966
-0.233795
-0.274361
-0.315521
-0.357124
-0.399005
-0.440987
-0.482885
-0.524507
-0.565659
-0.606143
-0.645762
-0.684318
-0.721633
-0.75754
-0.791871
-0.824461
-0.85516
-0.88382
-0.910311
-0.934469
-0.95623
-0.975786
-0.993087
-1.00831
-1.02112
-1.03119
-1.0387
-1.04384
-1.04663
-1.04708
-1.04525
-1.04121
-1.03504
-1.0268
-1.01662
-1.00432
-0.989921
-0.973633
-0.95562
-0.93613
-0.915248
-0.893098
-0.869649
-0.844948
0.184468
0.162773
0.141974
0.122045
0.101164
0.0788863
0.0555898
0.0314903
0.00655505
-0.0192695
-0.045985
-0.0735499
-0.101897
-0.130954
-0.160651
-0.19091
-0.221631
-0.25271
-0.284038
-0.315504
-0.346992
-0.378379
-0.40954
-0.440344
-0.470662
-0.500362
-0.529317
-0.5574
-0.58449
-0.610471
-0.635236
-0.658684
-0.680731
-0.701285
-0.72032
-0.737651
-0.753269
-0.767263
-0.77969
-0.790296
-0.799027
-0.805989
-0.811249
-0.81483
-0.816761
-0.817093
-0.815889
-0.813221
-0.809153
-0.803793
-0.797078
-0.788999
-0.779684
-0.769329
-0.758142
-0.746253
-0.733727
-0.720673
-0.706918
0.104329
0.0834526
0.0644589
0.0463352
0.0273491
0.00732457
-0.0133042
-0.034352
-0.0558529
-0.0778241
-0.100219
-0.122982
-0.146065
-0.169423
-0.192999
-0.216747
-0.240552
-0.264416
-0.288348
-0.312184
-0.335848
-0.359297
-0.382468
-0.405285
-0.427671
-0.449554
-0.470869
-0.491531
-0.511457
-0.530569
-0.548799
-0.56607
-0.582333
-0.597534
-0.611612
-0.624547
-0.636509
-0.647516
-0.657468
-0.66629
-0.674064
-0.680678
-0.685973
-0.690039
-0.69296
-0.694749
-0.695404
-0.694941
-0.693389
-0.690778
-0.687133
-0.682484
-0.676853
-0.670303
-0.662744
-0.654232
-0.644754
-0.634488
-0.623417
0.0670066
0.0509378
0.0356665
0.0209295
0.00573719
-0.0100812
-0.0262898
-0.0427696
-0.0595363
-0.0766052
-0.0939529
-0.111545
-0.129351
-0.147341
-0.165484
-0.183742
-0.202077
-0.220449
-0.238813
-0.257113
-0.275299
-0.293322
-0.311133
-0.328681
-0.345916
-0.362787
-0.379246
-0.395244
-0.410736
-0.425679
-0.440031
-0.453757
-0.466819
-0.479193
-0.490799
-0.501523
-0.511364
-0.520505
-0.528996
-0.536766
-0.543694
-0.549689
-0.554804
-0.55909
-0.562556
-0.565203
-0.567044
-0.568099
-0.568391
-0.567944
-0.566784
-0.564938
-0.56244
-0.5593
-0.555484
-0.551024
-0.545969
-0.540432
-0.534349
0.0285243
0.0140204
0.000532291
-0.0124957
-0.0259192
-0.0398043
-0.0539274
-0.0681968
-0.082629
-0.0972315
-0.111979
-0.12684
-0.141786
-0.156792
-0.17183
-0.186872
-0.201884
-0.216837
-0.231698
-0.246435
-0.261019
-0.275421
-0.28961
-0.303552
-0.317216
-0.33057
-0.343583
-0.356226
-0.36847
-0.380286
-0.391648
-0.402534
-0.412895
-0.422682
-0.431866
-0.440425
-0.448328
-0.455581
-0.462297
-0.468495
-0.474214
-0.479357
-0.483922
-0.48786
-0.49109
-0.493658
-0.495614
-0.496967
-0.497714
-0.497861
-0.497421
-0.496407
-0.494834
-0.492715
-0.490061
-0.486896
-0.483213
-0.479087
-0.474274
0.0084979
-0.00308123
-0.0141621
-0.0249548
-0.0359613
-0.0472436
-0.0586721
-0.070186
-0.0817917
-0.0934929
-0.105274
-0.117114
-0.128995
-0.140902
-0.152816
-0.164719
-0.176591
-0.188412
-0.200162
-0.21182
-0.223364
-0.234769
-0.246011
-0.257067
-0.267915
-0.278534
-0.288902
-0.298998
-0.3088
-0.31829
-0.327449
-0.336258
-0.344702
-0.352766
-0.360437
-0.367706
-0.374548
-0.380896
-0.386754
-0.392194
-0.39725
-0.401964
-0.406237
-0.409998
-0.413278
-0.416111
-0.418503
-0.42045
-0.421956
-0.423033
-0.423691
-0.423939
-0.42379
-0.423255
-0.422349
-0.421086
-0.419479
-0.417534
-0.415131
-0.0116076
-0.0218944
-0.0316223
-0.041114
-0.0507958
-0.0606853
-0.0706643
-0.080687
-0.090761
-0.100888
-0.111052
-0.121237
-0.131427
-0.141607
-0.151764
-0.161882
-0.171943
-0.181931
-0.191831
-0.201625
-0.211296
-0.220829
-0.230208
-0.23942
-0.248448
-0.257276
-0.265888
-0.274272
-0.282411
-0.290293
-0.297904
-0.305231
-0.312264
-0.318991
-0.325401
-0.331487
-0.33724
-0.342649
-0.347687
-0.352328
-0.356545
-0.360392
-0.36393
-0.367134
-0.370029
-0.372603
-0.374831
-0.376655
-0.378098
-0.379187
-0.379929
-0.380322
-0.380371
-0.380081
-0.37946
-0.378517
-0.377254
-0.375688
-0.37377
-0.0228367
-0.0312963
-0.0394843
-0.0475229
-0.0556592
-0.0639156
-0.0722238
-0.0805525
-0.0889033
-0.0972758
-0.10566
-0.114044
-0.122417
-0.130769
-0.139091
-0.147371
-0.155599
-0.163764
-0.171855
-0.17986
-0.18777
-0.195572
-0.203253
-0.210803
-0.218209
-0.225462
-0.232549
-0.239461
-0.246187
-0.252718
-0.259044
-0.265157
-0.271048
-0.276709
-0.282133
-0.287314
-0.292244
-0.29692
-0.301336
-0.30549
-0.309375
-0.312958
-0.316273
-0.319359
-0.32219
-0.324741
-0.327014
-0.329017
-0.330755
-0.332228
-0.333439
-0.334394
-0.335096
-0.335552
-0.335768
-0.33575
-0.335503
-0.335041
-0.334308
-0.0349803
-0.0426007
-0.0498772
-0.0570238
-0.0642664
-0.0716018
-0.0789632
-0.0863267
-0.0936963
-0.101071
-0.108443
-0.1158
-0.123134
-0.130438
-0.137701
-0.144915
-0.152071
-0.15916
-0.166173
-0.1731
-0.179933
-0.186662
-0.193279
-0.199777
-0.206146
-0.212379
-0.218468
-0.224404
-0.23018
-0.235788
-0.241222
-0.246474
-0.251539
-0.25641
-0.261082
-0.265549
-0.269807
-0.273851
-0.277678
-0.281284
-0.284665
-0.287822
-0.290753
-0.293456
-0.295935
-0.298163
-0.300136
-0.30191
-0.303475
-0.304809
-0.305911
-0.306786
-0.30744
-0.307874
-0.308089
-0.308091
-0.307878
-0.307462
-0.306808
-0.0413305
-0.0477046
-0.0539851
-0.0601893
-0.0664251
-0.072708
-0.0790068
-0.0853038
-0.0915968
-0.0978837
-0.104159
-0.110416
-0.116651
-0.122855
-0.129022
-0.135144
-0.141214
-0.147225
-0.153171
-0.159046
-0.164843
-0.170556
-0.176177
-0.181701
-0.187121
-0.19243
-0.197623
-0.202694
-0.207637
-0.212448
-0.217121
-0.221651
-0.226033
-0.230264
-0.234339
-0.238254
-0.242006
-0.245592
-0.24901
-0.252256
-0.255328
-0.258226
-0.260948
-0.263492
-0.26586
-0.26805
-0.270063
-0.271899
-0.27356
-0.275044
-0.276353
-0.277491
-0.278458
-0.279257
-0.279891
-0.280364
-0.280677
-0.28084
-0.280815
-0.0511008
-0.0570971
-0.0627868
-0.0683964
-0.0740688
-0.0797796
-0.0854809
-0.0911617
-0.0968274
-0.102479
-0.108112
-0.113718
-0.119288
-0.124816
-0.130295
-0.135723
-0.141095
-0.146406
-0.151653
-0.156829
-0.161928
-0.166945
-0.171878
-0.17672
-0.181468
-0.186115
-0.190659
-0.195093
-0.199415
-0.203619
-0.207701
-0.211658
-0.215486
-0.219182
-0.222741
-0.226162
-0.229442
-0.232577
-0.235566
-0.238407
-0.241098
-0.243637
-0.246023
-0.248255
-0.250332
-0.252253
-0.254018
-0.255627
-0.257079
-0.258375
-0.259515
-0.260501
-0.261331
-0.262013
-0.26254
-0.262915
-0.263138
-0.263216
-0.263129
-0.0534276
-0.0584706
-0.0636358
-0.0687531
-0.0738367
-0.078923
-0.0840179
-0.0890694
-0.0940279
-0.0989283
-0.103836
-0.108823
-0.113876
-0.118901
-0.123862
-0.12873
-0.133497
-0.138203
-0.142861
-0.147461
-0.151993
-0.156453
-0.160837
-0.165142
-0.169364
-0.1735
-0.177548
-0.181504
-0.185366
-0.189131
-0.192796
-0.196357
-0.19981
-0.203152
-0.206381
-0.209494
-0.21249
-0.215366
-0.218122
-0.220756
-0.223266
-0.225653
-0.227915
-0.230052
-0.232064
-0.233952
-0.235715
-0.237355
-0.238865
-0.240244
-0.241493
-0.242615
-0.243605
-0.244468
-0.245197
-0.2458
-0.246283
-0.246653
-0.246886
-0.0652836
-0.0703167
-0.0748999
-0.0794527
-0.0840938
-0.0887473
-0.0933605
-0.0979354
-0.102484
-0.107007
-0.111501
-0.11596
-0.120378
-0.124749
-0.129072
-0.133342
-0.13756
-0.141723
-0.145829
-0.149873
-0.153853
-0.157766
-0.161609
-0.16538
-0.169079
-0.172702
-0.176246
-0.179708
-0.183084
-0.186371
-0.189565
-0.192661
-0.195661
-0.198562
-0.201363
-0.204063
-0.206661
-0.209154
-0.211541
-0.213821
-0.215992
-0.218055
-0.220009
-0.221854
-0.22359
-0.225217
-0.226736
-0.228146
-0.229448
-0.230639
-0.231716
-0.23268
-0.233534
-0.23427
-0.234895
-0.235411
-0.235811
-0.236096
-0.236258
-0.0625801
-0.0670882
-0.071958
-0.0766732
-0.0812164
-0.0857128
-0.0901976
-0.0946482
-0.0990501
-0.103404
-0.107715
-0.111983
-0.116206
-0.120382
-0.12451
-0.128586
-0.132607
-0.136573
-0.140481
-0.14433
-0.148115
-0.15184
-0.155463
-0.158951
-0.162347
-0.165688
-0.168971
-0.1722
-0.175423
-0.178635
-0.181766
-0.184788
-0.187699
-0.190484
-0.193149
-0.195719
-0.198203
-0.200595
-0.20289
-0.205087
-0.207185
-0.209186
-0.211089
-0.212892
-0.214593
-0.216192
-0.217687
-0.219078
-0.220369
-0.221562
-0.222657
-0.223652
-0.22455
-0.225349
-0.226055
-0.226663
-0.227164
-0.227556
-0.22783
-0.0797325
-0.084122
-0.0878741
-0.0916867
-0.095646
-0.0995938
-0.103466
-0.107287
-0.111077
-0.114834
-0.118552
-0.122229
-0.125864
-0.129455
-0.133002
-0.136502
-0.139953
-0.143355
-0.146704
-0.15
-0.15324
-0.156423
-0.159548
-0.162612
-0.165616
-0.168558
-0.171435
-0.174243
-0.176979
-0.17964
-0.182225
-0.184731
-0.187161
-0.189514
-0.19179
-0.193989
-0.196109
-0.198149
-0.200104
-0.201952
-0.203682
-0.205326
-0.206904
-0.208416
-0.209852
-0.211208
-0.212485
-0.213684
-0.214805
-0.215851
-0.216824
-0.217724
-0.218552
-0.219308
-0.219994
-0.220612
-0.221166
-0.221656
-0.222083
-0.828245
-0.643051
-0.477474
-0.34701
-0.249287
-0.177442
-0.125595
-0.0885314
-0.0623659
-0.044003
-0.0311676
-0.0222796
-0.0161699
-0.0118368
-0.0086441
-0.00637676
-0.00478839
-0.00363099
-0.00275478
-0.00207453
-0.00152929
-0.00108881
-0.000727477
-0.000472886
-0.000247091
-0.000224124
-0.757817
-0.609142
-0.472584
-0.363175
-0.278817
-0.211776
-0.15912
-0.119733
-0.0907805
-0.0694339
-0.0533924
-0.0414803
-0.0330687
-0.0265703
-0.0210523
-0.0167411
-0.0134861
-0.0109392
-0.0088435
-0.00707043
-0.00554096
-0.00420013
-0.00299874
-0.001944
-0.000950355
-0.000320379
-0.657707
-0.55284
-0.450489
-0.362332
-0.291845
-0.234414
-0.186039
-0.146987
-0.11665
-0.0935532
-0.0755679
-0.0614038
-0.0502808
-0.0415404
-0.0343875
-0.0283537
-0.0234568
-0.0194764
-0.0161149
-0.0131867
-0.0105965
-0.00828138
-0.00616512
-0.00426139
-0.00237246
-0.000949725
-0.584433
-0.512296
-0.43588
-0.361761
-0.300256
-0.249602
-0.205909
-0.168289
-0.13748
-0.113084
-0.0935892
-0.0777786
-0.0649609
-0.0545336
-0.0458498
-0.0385017
-0.0323365
-0.027137
-0.0226484
-0.0186916
-0.0151549
-0.0119551
-0.00898168
-0.00625447
-0.00349833
-0.00149473
-0.511702
-0.460527
-0.402235
-0.344428
-0.292402
-0.248257
-0.210335
-0.177097
-0.148721
-0.124823
-0.105045
-0.0887015
-0.0752055
-0.0639205
-0.0543279
-0.0461014
-0.0390302
-0.0329132
-0.0275467
-0.0227676
-0.0184612
-0.0145385
-0.0108412
-0.00738963
-0.00390384
-0.00152105
-0.456526
-0.420626
-0.377438
-0.333052
-0.289468
-0.250742
-0.21722
-0.187632
-0.161338
-0.138167
-0.118265
-0.10146
-0.0872578
-0.0750828
-0.0645516
-0.0553932
-0.0473872
-0.0403401
-0.0340723
-0.0284292
-0.0232813
-0.0185396
-0.0140805
-0.00994617
-0.0056961
-0.00251074
-0.405352
-0.37999
-0.347373
-0.312014
-0.276993
-0.244018
-0.214211
-0.187562
-0.163714
-0.142456
-0.12366
-0.107265
-0.0929319
-0.0804128
-0.0694845
-0.0598932
-0.0514039
-0.0438262
-0.0370014
-0.0307944
-0.0250704
-0.0197449
-0.0147354
-0.0100849
-0.00539766
-0.00209099
-0.366112
-0.348387
-0.324138
-0.296404
-0.268362
-0.240657
-0.214461
-0.190425
-0.168744
-0.149203
-0.131549
-0.115602
-0.101272
-0.0885366
-0.0772356
-0.0671805
-0.0581761
-0.0500354
-0.0426146
-0.0357982
-0.0294785
-0.0235868
-0.0180043
-0.0127784
-0.00732222
-0.00320529
-0.330754
-0.318414
-0.299998
-0.278061
-0.255003
-0.231831
-0.209197
-0.187812
-0.167964
-0.149695
-0.133021
-0.117856
-0.104104
-0.091658
-0.080335
-0.0700401
-0.0607017
-0.0522024
-0.0444097
-0.0372057
-0.0304894
-0.024188
-0.0181788
-0.0125458
-0.0068036
-0.00269549
-0.303785
-0.295278
-0.281486
-0.264092
-0.24514
-0.225655
-0.206181
-0.187271
-0.169251
-0.152312
-0.136612
-0.12217
-0.108875
-0.0966627
-0.0854281
-0.0750464
-0.0654784
-0.0566736
-0.0485299
-0.040945
-0.0338286
-0.0271168
-0.0206694
-0.0146052
-0.00830328
-0.00360589
-0.279973
-0.274167
-0.263545
-0.249546
-0.233809
-0.217229
-0.20029
-0.183447
-0.167089
-0.15147
-0.136732
-0.122898
-0.109962
-0.0979365
-0.0868442
-0.0765834
-0.0670668
-0.058193
-0.0498798
-0.0420537
-0.0346579
-0.0276584
-0.0209287
-0.0145783
-0.00803362
-0.00327603
-0.262235
-0.258278
-0.250114
-0.238683
-0.225414
-0.211108
-0.196193
-0.181077
-0.166138
-0.151643
-0.137749
-0.124543
-0.112073
-0.100346
-0.0893946
-0.0791939
-0.069652
-0.0606847
-0.0522345
-0.0442489
-0.0366604
-0.0294325
-0.022448
-0.0158353
-0.00893814
-0.00381472
-0.247099
-0.244407
-0.23784
-0.22826
-0.216873
-0.204364
-0.191101
-0.177447
-0.163752
-0.150283
-0.13721
-0.124644
-0.112654
-0.101275
-0.0905329
-0.0804102
-0.070832
-0.0617831
-0.0532373
-0.0451506
-0.0374411
-0.0300528
-0.0228719
-0.0160466
-0.00894504
-0.00371953
-0.236339
-0.234406
-0.228906
-0.220501
-0.210318
-0.198974
-0.186815
-0.174174
-0.161374
-0.148665
-0.136222
-0.124163
-0.112573
-0.101498
-0.0909694
-0.0809843
-0.0715083
-0.0625265
-0.0540109
-0.0459136
-0.0381661
-0.0307214
-0.0234575
-0.0165279
-0.00927804
-0.003909
-0.228229
-0.226763
-0.221976
-0.214537
-0.205395
-0.195027
-0.183786
-0.172009
-0.159983
-0.147932
-0.136023
-0.124383
-0.113106
-0.102253
-0.091855
-0.0819268
-0.0724678
-0.0634646
-0.0548888
-0.0467009
-0.0388429
-0.0312788
-0.0238892
-0.0168267
-0.0094309
-0.00395621
-0.223049
-0.221052
-0.215851
-0.208467
-0.19963
-0.189672
-0.17892
-0.16769
-0.156234
-0.14474
-0.133355
-0.122196
-0.111351
-0.10088
-0.0908093
-0.0811583
-0.0719327
-0.0631202
-0.0546938
-0.046618
-0.0388396
-0.0313278
-0.0239647
-0.0169073
-0.00949041
-0.00398908
0.516626
0.518725
0.523958
0.531508
0.539954
0.547517
0.551127
0.546079
0.523821
0.476607
0.473081
0.473674
0.475103
0.476621
0.476771
0.473517
0.463622
0.442664
0.402041
0.33283
0.428786
0.428198
0.426616
0.423379
0.417207
0.406128
0.387223
0.356808
0.309227
0.241565
0.385111
0.38367
0.379744
0.372884
0.362109
0.345698
0.321198
0.285798
0.234981
0.165639
0.343146
0.341088
0.335472
0.326066
0.31222
0.292527
0.265049
0.227738
0.177859
0.114734
0.303657
0.301184
0.294443
0.283389
0.267684
0.246251
0.217626
0.180418
0.132713
0.0738594
0.26716
0.264436
0.257018
0.245016
0.228365
0.206291
0.177739
0.141818
0.0975401
0.0452309
0.23397
0.231118
0.223357
0.210922
0.193972
0.171996
0.144264
0.110271
0.0694457
0.022043
0.204251
0.201357
0.193485
0.180966
0.164139
0.142705
0.116193
0.0843714
0.0471208
0.00511294
0.178062
0.175179
0.167337
0.154947
0.138484
0.117821
0.0926808
0.0630295
0.0289095
-0.00917646
0.155396
0.152548
0.144804
0.132637
0.116635
0.0968055
0.0730165
0.0453693
0.0141578
-0.0198292
0.136214
0.133401
0.125756
0.11382
0.0982723
0.0792119
0.0566047
0.0306512
0.00163806
-0.0299715
0.120477
0.117675
0.110054
0.098273
0.0831164
0.0647406
0.0431736
0.0186645
-0.00826424
-0.0366964
0.108178
0.105341
0.0976118
0.0857859
0.0707302
0.0526597
0.0316489
0.00798887
-0.0180058
-0.0460715
0.0993914
0.0962787
0.0884205
0.0767364
0.0619671
0.0443211
0.0239201
0.00104665
-0.0236532
-0.0490979
0.0945555
0.0901033
0.0810526
0.0685967
0.053296
0.0352919
0.0146911
-0.00826383
-0.0334641
-0.0608578
0.429867
0.405609
0.380085
0.355001
0.328283
0.298793
0.266638
0.23209
0.195252
0.155849
0.112491
0.0658973
0.017907
-0.0319397
-0.0842214
-0.138822
-0.195378
-0.253599
-0.313241
-0.374017
-0.435586
-0.497576
-0.559597
-0.621249
-0.682117
-0.741788
-0.799852
-0.855915
-0.909601
-0.960562
-1.00849
-1.05309
-1.09416
-1.1315
-1.16502
-1.19478
-1.22036
-1.24141
-1.25764
-1.26955
-1.27749
-1.2815
-1.28161
-1.27797
-1.27075
-1.26016
-1.24641
-1.2297
-1.2103
-1.1884
-1.16457
-1.13923
-1.11251
-1.08455
-1.05554
-1.02574
-0.995392
-0.964672
-0.933804
0.255516
0.227023
0.201487
0.176574
0.149527
0.120327
0.089646
0.0575756
0.0245787
-0.00895198
-0.0435402
-0.0794118
-0.116416
-0.154426
-0.193382
-0.233201
-0.273756
-0.314905
-0.356496
-0.398366
-0.440336
-0.482222
-0.523833
-0.564974
-0.605446
-0.645053
-0.683597
-0.720901
-0.756796
-0.791114
-0.823693
-0.85438
-0.883028
-0.909508
-0.933655
-0.955404
-0.974948
-0.992237
-1.00745
-1.02025
-1.03031
-1.03781
-1.04294
-1.04572
-1.04616
-1.04432
-1.04027
-1.03409
-1.02584
-1.01566
-1.00335
-0.988951
-0.972659
-0.95464
-0.935144
-0.914256
-0.892101
-0.868648
-0.843944
0.184924
0.163239
0.142447
0.122523
0.101648
0.0793781
0.0560903
0.0319996
0.00707264
-0.0187439
-0.0454513
-0.0730074
-0.101345
-0.130393
-0.160081
-0.190331
-0.221042
-0.252112
-0.283431
-0.314888
-0.346365
-0.377743
-0.408894
-0.439688
-0.469996
-0.499686
-0.528631
-0.556704
-0.583784
-0.609756
-0.634511
-0.657949
-0.679985
-0.70053
-0.719556
-0.736878
-0.752486
-0.76647
-0.778887
-0.789485
-0.798209
-0.805164
-0.810415
-0.813987
-0.815911
-0.816236
-0.815024
-0.81235
-0.808276
-0.802909
-0.796189
-0.788105
-0.778786
-0.768425
-0.757232
-0.745337
-0.732806
-0.719749
-0.70599
0.104795
0.0839277
0.0649408
0.0468225
0.0278425
0.00782533
-0.0127951
-0.0338345
-0.0553274
-0.0772911
-0.099679
-0.122434
-0.145508
-0.168858
-0.192426
-0.216167
-0.23996
-0.263813
-0.287739
-0.311571
-0.335227
-0.358667
-0.381829
-0.404637
-0.427014
-0.448889
-0.470196
-0.49085
-0.510768
-0.529872
-0.548094
-0.565357
-0.581613
-0.596807
-0.610878
-0.623804
-0.635757
-0.646755
-0.6567
-0.665515
-0.673282
-0.67989
-0.685179
-0.689239
-0.692153
-0.693936
-0.694585
-0.694117
-0.69256
-0.689943
-0.686294
-0.68164
-0.676005
-0.66945
-0.661888
-0.653375
-0.643894
-0.633627
-0.62255
0.0674798
0.0514195
0.0361543
0.0214219
0.00623445
-0.00957786
-0.0257795
-0.0422522
-0.0590123
-0.0760748
-0.0934164
-0.111002
-0.128801
-0.146785
-0.16492
-0.183172
-0.2015
-0.219866
-0.238222
-0.256516
-0.274695
-0.292711
-0.310514
-0.328056
-0.345284
-0.362149
-0.378601
-0.394592
-0.410077
-0.425013
-0.439358
-0.453078
-0.466133
-0.4785
-0.4901
-0.500819
-0.510653
-0.519786
-0.52827
-0.536033
-0.542956
-0.548947
-0.554058
-0.558339
-0.561799
-0.56444
-0.566275
-0.567326
-0.567614
-0.567162
-0.565998
-0.564148
-0.561646
-0.558503
-0.554684
-0.550222
-0.545163
-0.539624
-0.533536
0.0290015
0.0145052
0.0010226
-0.0120012
-0.0254202
-0.0392998
-0.0534166
-0.0676796
-0.0821057
-0.0967025
-0.111444
-0.126299
-0.141239
-0.156239
-0.171271
-0.186306
-0.201313
-0.21626
-0.231114
-0.245845
-0.260423
-0.274819
-0.289002
-0.302938
-0.316596
-0.329944
-0.342951
-0.355588
-0.367826
-0.379636
-0.390992
-0.401873
-0.412228
-0.422011
-0.431189
-0.439743
-0.447642
-0.45489
-0.461599
-0.46779
-0.473504
-0.478642
-0.483203
-0.487137
-0.490364
-0.492928
-0.49488
-0.496228
-0.496971
-0.497115
-0.496671
-0.495654
-0.494078
-0.491955
-0.489299
-0.486131
-0.482445
-0.478317
-0.473503
0.00897809
-0.00259414
-0.0136699
-0.0244588
-0.0354613
-0.0467389
-0.0581619
-0.0696702
-0.0812706
-0.0929667
-0.104743
-0.116578
-0.128454
-0.140355
-0.152264
-0.164162
-0.176029
-0.187845
-0.19959
-0.211243
-0.222782
-0.234182
-0.245418
-0.256469
-0.267313
-0.277927
-0.28829
-0.29838
-0.308178
-0.317663
-0.326817
-0.335622
-0.344061
-0.35212
-0.359787
-0.367051
-0.373889
-0.380234
-0.386087
-0.391523
-0.396573
-0.401282
-0.405551
-0.409309
-0.412587
-0.415417
-0.417805
-0.419748
-0.421251
-0.422325
-0.42298
-0.423225
-0.423073
-0.422536
-0.421627
-0.420362
-0.418752
-0.416805
-0.414401
-0.011126
-0.0214067
-0.0311301
-0.0406184
-0.0502968
-0.0601819
-0.0701561
-0.0801738
-0.0902431
-0.100365
-0.110526
-0.120706
-0.130891
-0.141067
-0.151219
-0.161332
-0.171389
-0.181373
-0.191268
-0.201057
-0.210724
-0.220252
-0.229627
-0.238834
-0.247858
-0.256681
-0.26529
-0.273668
-0.281804
-0.289681
-0.297288
-0.304612
-0.31164
-0.318363
-0.32477
-0.330851
-0.336601
-0.342007
-0.347041
-0.35168
-0.355893
-0.359737
-0.363271
-0.366471
-0.369362
-0.371932
-0.374158
-0.37598
-0.37742
-0.378507
-0.379247
-0.379638
-0.379684
-0.379392
-0.37877
-0.377825
-0.37656
-0.374994
-0.373074
-0.0223544
-0.0308085
-0.0389923
-0.0470278
-0.0551609
-0.0634135
-0.0717174
-0.0800416
-0.0883882
-0.0967567
-0.105137
-0.113517
-0.121886
-0.130234
-0.138552
-0.146828
-0.155052
-0.163213
-0.1713
-0.179302
-0.187207
-0.195005
-0.202683
-0.210229
-0.217632
-0.22488
-0.231964
-0.238872
-0.245595
-0.252122
-0.258445
-0.264554
-0.270442
-0.2761
-0.281521
-0.286698
-0.291626
-0.296298
-0.300711
-0.304862
-0.308745
-0.312325
-0.315637
-0.31872
-0.321547
-0.324096
-0.326368
-0.328369
-0.330104
-0.331575
-0.332784
-0.333737
-0.334438
-0.334893
-0.335107
-0.335088
-0.334839
-0.334376
-0.333642
-0.0344981
-0.0421135
-0.0493863
-0.0565301
-0.0637699
-0.071102
-0.0784595
-0.0858191
-0.093185
-0.100557
-0.107925
-0.115278
-0.122609
-0.129909
-0.137168
-0.144379
-0.151532
-0.158617
-0.165627
-0.17255
-0.17938
-0.186105
-0.192719
-0.199214
-0.20558
-0.21181
-0.217895
-0.223828
-0.2296
-0.235206
-0.240636
-0.245886
-0.250948
-0.255816
-0.260485
-0.264949
-0.269205
-0.273246
-0.277071
-0.280674
-0.284053
-0.287207
-0.290135
-0.292837
-0.295313
-0.29754
-0.299511
-0.301283
-0.302846
-0.304179
-0.305279
-0.306153
-0.306806
-0.307238
-0.307452
-0.307453
-0.307239
-0.306822
-0.306168
-0.0408483
-0.0472179
-0.0534949
-0.0596966
-0.0659299
-0.0722097
-0.0785051
-0.0847985
-0.0910882
-0.097372
-0.103644
-0.109899
-0.11613
-0.12233
-0.128494
-0.134613
-0.14068
-0.146688
-0.152631
-0.158503
-0.164297
-0.170007
-0.175626
-0.181147
-0.186563
-0.191869
-0.19706
-0.202128
-0.207069
-0.211877
-0.216547
-0.221075
-0.225455
-0.229683
-0.233755
-0.237668
-0.241418
-0.245002
-0.248417
-0.251661
-0.254732
-0.257627
-0.260347
-0.26289
-0.265256
-0.267444
-0.269455
-0.271291
-0.272949
-0.274432
-0.275741
-0.276877
-0.277843
-0.278641
-0.279275
-0.279747
-0.28006
-0.280222
-0.280197
-0.0506196
-0.0566119
-0.0622984
-0.0679057
-0.0735757
-0.0792838
-0.084982
-0.0906596
-0.0963224
-0.101972
-0.107602
-0.113205
-0.118772
-0.124297
-0.129773
-0.135198
-0.140567
-0.145876
-0.15112
-0.156293
-0.16139
-0.166405
-0.171335
-0.176174
-0.180919
-0.185565
-0.190105
-0.194538
-0.198857
-0.203059
-0.207139
-0.211094
-0.21492
-0.218613
-0.22217
-0.225589
-0.228867
-0.232
-0.234988
-0.237827
-0.240516
-0.243053
-0.245438
-0.247668
-0.249744
-0.251664
-0.253428
-0.255035
-0.256486
-0.257781
-0.25892
-0.259905
-0.260734
-0.261416
-0.261942
-0.262316
-0.262539
-0.262617
-0.262529
-0.0529463
-0.0579857
-0.063148
-0.0682633
-0.0733448
-0.0784286
-0.0835207
-0.0885696
-0.093526
-0.0984244
-0.103329
-0.108312
-0.113361
-0.118383
-0.123342
-0.128209
-0.132975
-0.137678
-0.142333
-0.146931
-0.151461
-0.155918
-0.1603
-0.164603
-0.168823
-0.172956
-0.177002
-0.180956
-0.184816
-0.188579
-0.192242
-0.1958
-0.199252
-0.202592
-0.205819
-0.208931
-0.211925
-0.214799
-0.217553
-0.220186
-0.222695
-0.22508
-0.22734
-0.229476
-0.231487
-0.233373
-0.235136
-0.236774
-0.238283
-0.239662
-0.240911
-0.242031
-0.243021
-0.243884
-0.244613
-0.245216
-0.245699
-0.246069
-0.246301
-0.0648034
-0.0698331
-0.0744135
-0.0789643
-0.0836034
-0.0882547
-0.0928654
-0.0974378
-0.101984
-0.106505
-0.110996
-0.115453
-0.119868
-0.124238
-0.128558
-0.132827
-0.137042
-0.141203
-0.145306
-0.149348
-0.153326
-0.157237
-0.161078
-0.164848
-0.168544
-0.172165
-0.175707
-0.179167
-0.182542
-0.185827
-0.189019
-0.192114
-0.195112
-0.198011
-0.200811
-0.20351
-0.206106
-0.208598
-0.210983
-0.213262
-0.215433
-0.217494
-0.219447
-0.221291
-0.223026
-0.224652
-0.226169
-0.227579
-0.22888
-0.23007
-0.231146
-0.23211
-0.232964
-0.233699
-0.234325
-0.23484
-0.23524
-0.235525
-0.235688
-0.0621006
-0.0666056
-0.071473
-0.0761862
-0.0807275
-0.0852217
-0.089704
-0.0941522
-0.0985517
-0.102904
-0.107212
-0.111478
-0.115699
-0.119873
-0.123998
-0.128072
-0.132092
-0.136056
-0.139961
-0.143808
-0.147592
-0.151314
-0.154936
-0.158423
-0.161817
-0.165156
-0.168438
-0.171664
-0.174884
-0.178093
-0.181223
-0.184243
-0.187153
-0.189938
-0.192602
-0.195171
-0.197654
-0.200044
-0.202338
-0.204533
-0.206631
-0.208631
-0.210532
-0.212334
-0.214035
-0.215633
-0.217128
-0.218518
-0.219808
-0.221001
-0.222095
-0.22309
-0.223988
-0.224786
-0.225492
-0.226099
-0.2266
-0.226992
-0.227267
-0.0792526
-0.083639
-0.0873888
-0.0911996
-0.0951574
-0.0991033
-0.102974
-0.106792
-0.11058
-0.114335
-0.118052
-0.121727
-0.125359
-0.128949
-0.132494
-0.135992
-0.139442
-0.142841
-0.146189
-0.149483
-0.152721
-0.155903
-0.159025
-0.162088
-0.165091
-0.168031
-0.170906
-0.173712
-0.176447
-0.179107
-0.18169
-0.184196
-0.186625
-0.188976
-0.191251
-0.193449
-0.195568
-0.197606
-0.199561
-0.201409
-0.203139
-0.204782
-0.206359
-0.20787
-0.209304
-0.210659
-0.211936
-0.213134
-0.214254
-0.2153
-0.216273
-0.217172
-0.217999
-0.218755
-0.219441
-0.220058
-0.220611
-0.221101
-0.221528
-0.827165
-0.642114
-0.476723
-0.34643
-0.248829
-0.177054
-0.125258
-0.0882461
-0.0621396
-0.043835
-0.0310444
-0.0221905
-0.016105
-0.0117869
-0.00861143
-0.00636433
-0.0047958
-0.0036534
-0.00278589
-0.00210987
-0.00156651
-0.00112623
-0.000761563
-0.00050075
-0.00026044
-0.000233977
-0.75683
-0.608276
-0.471851
-0.362585
-0.278336
-0.211369
-0.158766
-0.119425
-0.0905246
-0.0692323
-0.0532319
-0.0413671
-0.0329887
-0.0264951
-0.0209905
-0.0166985
-0.0134651
-0.0109368
-0.00885334
-0.00708668
-0.00555973
-0.00421977
-0.00301737
-0.00196014
-0.000957242
-0.000325947
-0.656786
-0.552008
-0.449783
-0.361746
-0.291347
-0.233982
-0.185658
-0.146654
-0.116366
-0.0933196
-0.0753799
-0.0612544
-0.0501649
-0.0414435
-0.0343012
-0.0282846
-0.0234094
-0.0194502
-0.0161036
-0.0131837
-0.0105974
-0.00828462
-0.00616937
-0.00426885
-0.00237326
-0.000952529
-0.583568
-0.511494
-0.435201
-0.361188
-0.299754
-0.249155
-0.205511
-0.167941
-0.137183
-0.112834
-0.0933806
-0.0776056
-0.0648168
-0.054412
-0.0457473
-0.0384193
-0.0322745
-0.0270934
-0.0226188
-0.0186716
-0.0151412
-0.0119453
-0.00897433
-0.00624964
-0.00349393
-0.00149635
-0.510892
-0.459775
-0.401576
-0.343859
-0.291901
-0.247804
-0.209926
-0.176735
-0.148408
-0.124558
-0.104817
-0.0885064
-0.0750359
-0.0637755
-0.0542069
-0.0460027
-0.0389512
-0.0328508
-0.0274981
-0.0227302
-0.0184345
-0.0145183
-0.0108249
-0.00737427
-0.0038944
-0.00152119
-0.455761
-0.419912
-0.376799
-0.332486
-0.288965
-0.250286
-0.216806
-0.18726
-0.161012
-0.137886
-0.118023
-0.101247
-0.0870718
-0.0749223
-0.0644154
-0.0552793
-0.0472929
-0.0402626
-0.0340092
-0.0283786
-0.0232414
-0.0185089
-0.0140573
-0.00992958
-0.00568611
-0.00250979
-0.404628
-0.379308
-0.346754
-0.311459
-0.276496
-0.243566
-0.213795
-0.187184
-0.163377
-0.142161
-0.123404
-0.10704
-0.0927351
-0.0802409
-0.0693353
-0.0597651
-0.0512958
-0.0437362
-0.0369271
-0.0307336
-0.0250196
-0.019705
-0.014706
-0.010065
-0.00538509
-0.00208883
-0.36542
-0.347731
-0.323537
-0.295861
-0.267872
-0.240206
-0.214043
-0.190041
-0.168398
-0.148897
-0.13128
-0.115366
-0.101064
-0.088352
-0.0770731
-0.0670385
-0.0580546
-0.0499332
-0.0425294
-0.0357276
-0.0294208
-0.0235421
-0.0179707
-0.0127547
-0.00730564
-0.00320112
-0.330092
-0.317783
-0.299416
-0.27753
-0.254517
-0.231382
-0.20878
-0.187427
-0.167615
-0.149383
-0.132745
-0.11761
-0.103884
-0.0914621
-0.0801623
-0.0698901
-0.0605726
-0.0520923
-0.0443164
-0.0371277
-0.0304257
-0.0241376
-0.0181408
-0.0125196
-0.0067872
-0.00269163
-0.303148
-0.294669
-0.280919
-0.263571
-0.24466
-0.22521
-0.205766
-0.186888
-0.168901
-0.151997
-0.136329
-0.121916
-0.108647
-0.0964585
-0.0852474
-0.0748896
-0.0653426
-0.056556
-0.048429
-0.0408597
-0.0337581
-0.0270597
-0.0206258
-0.014575
-0.00828501
-0.0036012
-0.279358
-0.273577
-0.262992
-0.249034
-0.233335
-0.216787
-0.199876
-0.183064
-0.166737
-0.151151
-0.136444
-0.122638
-0.109728