/*--------------------------------*- C++ -*----------------------------------*\
| =========                 |                                                 |
| \\      /  F ield         | OpenFOAM: The Open Source CFD Toolbox           |
|  \\    /   O peration     | Version:  2412                                  |
|   \\  /    A nd           | Website:  www.openfoam.com                      |
|    \\/     M anipulation  |                                                 |
\*---------------------------------------------------------------------------*/
FoamFile
{
    version     2.0;
    format      ascii;
    arch        "LSB;label=32;scalar=64";
    class       surfaceScalarField;
    location    "1500";
    object      phi;
}
// * * * * * * * * * * * * * * * * * * * * * * * * * * * * * * * * * * * * * //

dimensions      [0 3 -1 0 0 0 0];

oriented        oriented;

internalField   nonuniform List<scalar> 
27960
(
4.68722
0.00466645
-0.00438417
4.68646
0.0139875
-0.013225
4.68526
0.0238901
-0.0226999
4.68379
0.034825
-0.0333551
4.6823
0.047256
-0.0457638
4.68125
0.0617067
-0.0606537
4.68136
0.0787196
-0.0788331
4.68395
0.0989949
-0.101585
4.69049
0.122818
-0.129358
0.152185
4.7016
-0.163293
4.68742
0.00474222
4.6872
0.0142129
4.68693
0.0241589
4.6868
0.0349509
4.68713
0.0469322
4.68839
0.0604462
4.69131
0.0757963
4.69706
0.0932423
4.70737
0.112514
0.133015
4.72654
4.68757
0.00467296
4.68779
0.0139967
4.68825
0.0236952
4.68916
0.0340416
4.69082
0.0452719
4.69368
0.0575837
4.69837
0.0711045
4.70577
0.0858485
4.71666
0.101622
0.118122
4.73155
4.68769
0.00448677
4.68824
0.0134462
4.68926
0.0226753
4.69093
0.0323709
4.69352
0.0426799
4.69741
0.0536957
4.70309
0.0654247
4.71118
0.0777548
4.72252
0.0902868
0.102131
4.73851
4.68777
0.0042198
4.68856
0.0126497
4.68998
0.0212616
4.69216
0.0301847
4.69535
0.0394981
4.69982
0.0492221
4.70595
0.059295
4.71417
0.0695368
4.7248
0.079652
0.0890235
4.73791
4.68782
0.00389827
4.68878
0.0116885
4.69045
0.0195908
4.69296
0.0276801
4.69647
0.0359872
4.7012
0.0444872
4.70742
0.0530815
4.71538
0.0615724
4.72539
0.0696405
0.0765543
4.73786
4.68785
0.00354365
4.68892
0.0106273
4.69074
0.0177701
4.69341
0.0250073
4.69706
0.0323369
4.70184
0.0397078
4.70791
0.0470085
4.71544
0.0540445
4.7245
0.0605851
0.066109
4.73494
4.68787
0.00317206
4.68898
0.00951432
4.69088
0.0158788
4.69361
0.0222735
4.69727
0.0286764
4.70195
0.0350244
4.70776
0.0412056
4.71476
0.0470439
4.72302
0.0523238
0.0565292
4.7326
4.68788
0.00279477
4.68901
0.00838333
4.69092
0.0139712
4.69364
0.0195498
4.69723
0.0250863
4.70174
0.0305142
4.70722
0.0357303
4.71368
0.0405806
4.72109
0.0449164
0.0483799
4.72924
4.68788
0.00241866
4.689
0.00725513
4.6909
0.0120801
4.69357
0.0168772
4.69704
0.0216092
4.70135
0.0262126
4.70648
0.0305953
4.71243
0.0346292
4.71918
0.0381741
0.040878
4.72668
4.68787
0.00204689
4.68899
0.00613958
4.69085
0.0102207
4.69345
0.014273
4.6968
0.0182593
4.70089
0.0221212
4.70571
0.0257812
4.7112
0.0291335
4.71728
0.0320982
0.0344742
4.72368
4.68787
0.00167948
4.68897
0.00503687
4.6908
0.00839461
4.69333
0.0117372
4.69656
0.0150282
4.70047
0.0182177
4.70501
0.0212417
4.71012
0.0240186
4.71577
0.0264492
0.0282797
4.72196
4.68787
0.00131322
4.68897
0.00393536
4.69077
0.00659051
4.69325
0.00925829
4.69638
0.0119014
4.70012
0.0144777
4.70442
0.0169381
4.70922
0.0192196
4.71436
0.0213059
0.0231618
4.71948
4.68787
0.000942215
4.68899
0.00281583
4.6908
0.00477842
4.69327
0.00678947
4.69636
0.00881585
4.70001
0.0108232
4.70418
0.0127697
4.70879
0.0146133
4.71382
0.0162712
0.0175558
4.71943
4.68792
0.000525455
4.68905
0.00168014
4.69085
0.00297932
4.69329
0.00435454
4.69631
0.005796
4.69986
0.00726559
4.7039
0.00873214
4.70835
0.0101688
4.71299
0.0116243
0.0132802
4.71727
4.68813
4.68942
4.69138
4.69394
4.69705
4.70065
4.70471
4.70919
4.7141
4.71959
4.70116
-0.0317854
0.0322227
4.70122
-0.0289959
0.0289364
4.7018
-0.0262139
0.0256346
4.70292
-0.0234249
0.022307
4.7046
-0.0206391
0.0189621
4.70685
-0.0178664
0.0156154
4.70968
-0.0151123
0.0122786
4.7131
-0.0123805
0.00896056
4.71711
-0.00967889
0.00567018
4.72171
-0.00701604
0.00241581
4.72692
-0.00440201
-0.000803787
4.73274
-0.00184217
-0.00397659
4.73915
0.000666688
-0.00707861
4.74613
0.00311736
-0.0100965
4.75365
0.00550156
-0.013021
4.76167
0.00781307
-0.0158416
4.77017
0.0100473
-0.0185464
4.7791
0.0121994
-0.0211233
4.78839
0.0142642
-0.0235613
4.79801
0.0162375
-0.0258507
4.80787
0.0181161
-0.0279832
4.81793
0.0198973
-0.0299519
4.8281
0.0215793
-0.0317516
4.83832
0.0231612
-0.0333792
4.84851
0.0246429
-0.0348338
4.8586
0.0260253
-0.0361165
4.86852
0.02731
-0.0372307
4.87821
0.0284996
-0.0381819
4.88759
0.0295974
-0.0389775
4.8966
0.0306074
-0.0396266
4.90521
0.0315339
-0.0401398
4.91336
0.0323808
-0.0405286
4.92101
0.0331537
-0.0408057
4.92814
0.0338474
-0.0409807
4.93477
0.034452
-0.0410753
4.9408
0.0350924
-0.0411306
4.94622
0.0357269
-0.0411376
4.95093
0.0364161
-0.041135
4.95504
0.0369888
-0.0410905
4.95854
0.0375244
-0.0410331
4.96148
0.0380466
-0.0409786
4.96385
0.038567
-0.0409406
4.96569
0.0390942
-0.0409316
4.96702
0.0396349
-0.0409628
4.96786
0.0401953
-0.0410443
4.96827
0.0407808
-0.0411851
4.96826
0.0413978
-0.0413938
4.96789
0.0420462
-0.0416763
4.96719
0.0427517
-0.0420446
4.96624
0.0434267
-0.0424819
4.96512
0.0441319
-0.0430079
4.96385
0.0448961
-0.04363
4.96248
0.0457272
-0.044353
4.96103
0.0466236
-0.0451784
4.95956
0.0475851
-0.0461077
4.95809
0.0486037
-0.0471386
4.95667
0.0496879
-0.0482671
4.95537
0.0508051
-0.0495029
0.0520344
4.95409
-0.0507593
4.72654
-0.031784
4.72687
-0.029329
4.72753
-0.0268787
4.72855
-0.0244418
4.72994
-0.0220255
4.7317
-0.0196304
4.73385
-0.0172582
4.73638
-0.0149123
4.7393
-0.012595
4.74259
-0.0103059
4.74623
-0.00804941
4.75022
-0.00583233
4.75455
-0.00365866
4.7592
-0.00153037
4.76415
0.000549821
4.76938
0.00257846
4.77488
0.00455225
4.78061
0.00646851
4.78655
0.00832494
4.79267
0.0101196
4.79893
0.0118507
4.80531
0.0135172
4.81177
0.0151181
4.81828
0.0166535
4.8248
0.0181233
4.8313
0.0195292
4.83774
0.0208694
4.84409
0.0221458
4.85033
0.0233612
4.85641
0.0245186
4.86233
0.0256206
4.86804
0.0266704
4.87352
0.0276705
4.87874
0.0286241
4.88369
0.0295025
4.8884
0.0303913
4.89283
0.031293
4.89704
0.0322064
4.90096
0.033067
4.90455
0.0339318
4.90784
0.0347576
4.91084
0.0355736
4.91354
0.0363901
4.91596
0.0372125
4.91811
0.0380454
4.92
0.0388928
4.92164
0.0397592
4.92304
0.040646
4.92423
0.0415646
4.92517
0.0424848
4.92588
0.0434222
4.92638
0.0443933
4.9267
0.0454107
4.92687
0.046448
4.92692
0.0475356
4.92688
0.0486491
4.92673
0.0498343
4.92651
0.051027
0.0523559
4.92619
4.73079
-0.0310182
4.73031
-0.0288496
4.73014
-0.0267089
4.73028
-0.0245839
4.73073
-0.022475
4.73148
-0.0203857
4.73254
-0.0183185
4.73391
-0.0162751
4.73557
-0.0142576
4.73753
-0.0122675
4.73979
-0.0103058
4.74233
-0.008374
4.74515
-0.00647419
4.74822
-0.0046081
4.75155
-0.00277738
4.75511
-0.000983255
4.75889
0.000772606
4.76287
0.00248932
4.76703
0.00416598
4.77135
0.0058015
4.7758
0.00739514
4.78037
0.00894658
4.78504
0.0104557
4.78977
0.0119226
4.79454
0.0133474
4.79934
0.0147317
4.80414
0.0160731
4.80891
0.0173727
4.81364
0.0186327
4.8183
0.0198545
4.82288
0.0210395
4.82737
0.0221885
4.83173
0.0233046
4.83598
0.0243788
4.84007
0.0254138
4.844
0.0264574
4.84779
0.0275058
4.85144
0.028557
4.85491
0.029597
4.8582
0.0306402
4.86132
0.0316369
4.86427
0.0326194
4.86707
0.0335966
4.86971
0.0345729
4.8722
0.0355514
4.87456
0.036535
4.87679
0.0375258
4.87891
0.0385261
4.88094
0.0395383
4.88286
0.0405635
4.88468
0.0416035
4.88641
0.0426602
4.88808
0.0437374
4.88973
0.0448009
4.89137
0.0458927
4.89303
0.0469915
4.89472
0.0481474
4.89645
0.0492958
0.0505627
4.89824
4.73754
-0.0300501
4.73683
-0.0281409
4.73637
-0.0262494
4.73616
-0.0243714
4.73619
-0.0225086
4.73647
-0.0206622
4.73698
-0.018833
4.73773
-0.0170217
4.7387
-0.0152297
4.73989
-0.0134579
4.74129
-0.0117077
4.7429
-0.00997996
4.7447
-0.00827593
4.74669
-0.00659661
4.74885
-0.00494294
4.75119
-0.00331581
4.75368
-0.00171585
4.75631
-0.000143969
4.75908
0.00139881
4.76197
0.00291234
4.76496
0.00439641
4.76806
0.00585076
4.77124
0.00727533
4.77449
0.00867026
4.7778
0.0100359
4.78116
0.0113726
4.78456
0.0126811
4.78797
0.0139622
4.79138
0.0152171
4.79479
0.0164466
4.79818
0.0176535
4.80153
0.0188329
4.80485
0.0199903
4.80811
0.0211178
4.81131
0.0222121
4.81448
0.0232874
4.81761
0.02437
4.82071
0.0254656
4.82374
0.0265588
4.82674
0.0276415
4.82968
0.0287028
4.83252
0.0297715
4.8353
0.0308202
4.83801
0.0318639
4.84065
0.0329074
4.84324
0.0339528
4.84576
0.0350021
4.84823
0.036057
4.85065
0.037119
4.85302
0.0381897
4.85536
0.03927
4.85765
0.0403627
4.85993
0.0414642
4.86216
0.0425681
4.86437
0.0436859
4.86654
0.0448184
4.86871
0.0459794
4.87088
0.0471241
0.0483317
4.87311
4.73641
-0.0285553
4.73513
-0.0268515
4.73405
-0.0251699
4.73318
-0.0235017
4.73251
-0.0218457
4.73205
-0.0202031
4.7318
-0.018575
4.73174
-0.0169619
4.73187
-0.0153645
4.7322
-0.0137836
4.73271
-0.0122197
4.7334
-0.0106737
4.73427
-0.00914601
4.73531
-0.00763728
4.73652
-0.00614798
4.73788
-0.00467859
4.73939
-0.00322949
4.74105
-0.00180092
4.74284
-0.000393118
4.74476
0.000993738
4.7468
0.00235962
4.74894
0.00370456
4.75119
0.00502869
4.75353
0.00633216
4.75595
0.00761525
4.75844
0.00887834
4.761
0.0101219
4.76362
0.0113464
4.76628
0.0125525
4.76899
0.0137408
4.77173
0.0149134
4.7745
0.0160654
4.77729
0.0171992
4.78009
0.0183168
4.78288
0.0194209
4.78566
0.020508
4.78845
0.021576
4.79127
0.0226537
4.79409
0.0237331
4.79692
0.0248172
4.79972
0.0258957
4.80252
0.0269754
4.80531
0.028033
4.80809
0.029084
4.81086
0.0301326
4.81363
0.0311809
4.8164
0.0322302
4.81918
0.0332818
4.82196
0.0343366
4.82476
0.0353958
4.82757
0.0364603
4.8304
0.0375309
4.83325
0.0386086
4.83613
0.0396939
4.83903
0.0407878
4.84195
0.0418902
4.84493
0.0430066
4.84796
0.0440933
0.045234
4.85106
4.7361
-0.0267958
4.73454
-0.0252857
4.73316
-0.0237911
4.73196
-0.022307
4.73095
-0.0208337
4.73012
-0.0193715
4.72947
-0.0179207
4.72899
-0.0164816
4.72868
-0.0150547
4.72853
-0.0136404
4.72855
-0.0122392
4.72873
-0.0108514
4.72906
-0.00947749
4.72954
-0.00811763
4.73017
-0.00677219
4.73093
-0.0054414
4.73182
-0.00412557
4.73285
-0.00282464
4.73399
-0.00153898
4.73526
-0.000268492
4.73663
0.000986579
4.73811
0.00222643
4.73969
0.00345098
4.74136
0.00466055
4.74312
0.00585526
4.74496
0.00703533
4.74688
0.00820115
4.74887
0.00935307
4.75094
0.0104916
4.75306
0.0116172
4.75524
0.0127303
4.75748
0.0138317
4.75975
0.0149221
4.76207
0.0160022
4.76441
0.0170734
4.76679
0.0181344
4.76919
0.0191765
4.77163
0.0202105
4.77412
0.021246
4.77666
0.0222742
4.77924
0.0233137
4.78187
0.0243489
4.78453
0.0253741
4.78721
0.0264064
4.78991
0.0274287
4.79264
0.028447
4.79541
0.0294649
4.79821
0.0304836
4.80104
0.031504
4.80391
0.032527
4.80682
0.0335532
4.80976
0.0345833
4.81275
0.035618
4.81579
0.036658
4.81887
0.0377036
4.82201
0.0387567
4.8252
0.0398124
4.82843
0.0408704
0.0419331
4.83173
4.73282
-0.0246702
4.73086
-0.0233291
4.72907
-0.0220034
4.72745
-0.0206872
4.726
-0.0193795
4.72471
-0.0180808
4.72358
-0.0167914
4.72261
-0.0155115
4.72179
-0.0142415
4.72113
-0.0129816
4.72063
-0.011732
4.72027
-0.010493
4.72006
-0.00926486
4.71999
-0.00804774
4.72006
-0.00684183
4.72026
-0.00564718
4.7206
-0.00446402
4.72107
-0.00329239
4.72166
-0.00213226
4.72238
-0.000983686
4.72321
0.000153285
4.72416
0.00127895
4.72522
0.00239319
4.72638
0.00349637
4.72765
0.00458847
4.72901
0.00566991
4.73047
0.0067408
4.73202
0.00780139
4.73366
0.0088522
4.73539
0.00989335
4.73719
0.0109253
4.73907
0.0119487
4.74103
0.0129636
4.74306
0.0139707
4.74517
0.0149706
4.74734
0.0159639
4.74956
0.0169505
4.75185
0.017928
4.75419
0.0188982
4.75661
0.0198577
4.75911
0.0208172
4.76167
0.0217893
4.76428
0.022759
4.76696
0.0237325
4.76969
0.0246948
4.77248
0.0256526
4.77534
0.0266092
4.77826
0.0275654
4.78124
0.0285222
4.78429
0.02948
4.7874
0.0304395
4.79058
0.031401
4.79384
0.0323652
4.79716
0.0333324
4.80056
0.0343031
4.80404
0.0352777
4.8076
0.0362563
4.81123
0.0372403
0.0382254
4.81493
4.73026
-0.0223294
4.72808
-0.0211523
4.72606
-0.0199863
4.7242
-0.0188278
4.7225
-0.0176765
4.72095
-0.0165325
4.71956
-0.0153958
4.71831
-0.0142668
4.71722
-0.0131454
4.71627
-0.0120319
4.71546
-0.0109265
4.7148
-0.00982932
4.71427
-0.00874041
4.71389
-0.00766002
4.71363
-0.00658807
4.71351
-0.00552479
4.71352
-0.00447011
4.71365
-0.00342416
4.7139
-0.00238683
4.71428
-0.0013582
4.71477
-0.000338216
4.71537
0.000673212
4.71609
0.00167611
4.71692
0.0026706
4.71785
0.00365681
4.71888
0.00463486
4.72002
0.00560505
4.72125
0.0065675
4.72258
0.00752243
4.72401
0.00847012
4.72552
0.00941085
4.72712
0.0103449
4.72881
0.0112727
4.73059
0.0121944
4.73245
0.0131105
4.73439
0.0140212
4.73642
0.0149271
4.73852
0.0158284
4.74069
0.0167262
4.74293
0.0176197
4.74524
0.018504
4.74764
0.0193933
4.75011
0.0202846
4.75267
0.021171
4.75532
0.0220497
4.75804
0.0229267
4.76084
0.0238122
4.76371
0.0246933
4.76666
0.0255733
4.76969
0.0264537
4.77279
0.0273348
4.77598
0.0282171
4.77924
0.029101
4.78259
0.0299869
4.78601
0.030875
4.78953
0.0317658
4.79312
0.0326594
4.79681
0.0335567
0.0344549
4.80058
4.72665
-0.0197441
4.72422
-0.0187189
4.72193
-0.0177043
4.7198
-0.0166961
4.71782
-0.0156936
4.71598
-0.0146968
4.71429
-0.0137061
4.71275
-0.0127214
4.71135
-0.011743
4.71009
-0.0107708
4.70896
-0.00980518
4.70798
-0.00884603
4.70713
-0.0078934
4.70642
-0.00694756
4.70584
-0.00600839
4.70539
-0.005076
4.70507
-0.00415039
4.70488
-0.00323162
4.70481
-0.00231958
4.70487
-0.00141445
4.70505
-0.000515928
4.70534
0.000375845
4.70576
0.00126097
4.70629
0.0021397
4.70694
0.00301195
4.70769
0.00387802
4.70856
0.0047379
4.70954
0.00559189
4.71062
0.00644005
4.71181
0.00728265
4.7131
0.00811987
4.71449
0.00895188
4.71598
0.00977902
4.71758
0.0106014
4.71927
0.0114194
4.72106
0.0122331
4.72294
0.0130431
4.72492
0.0138493
4.72699
0.0146523
4.72916
0.0154523
4.73141
0.0162495
4.73376
0.0170449
4.73621
0.017838
4.73875
0.0186305
4.74138
0.0194167
4.74411
0.0202013
4.74693
0.0209945
4.74984
0.0217829
4.75284
0.0225699
4.75594
0.0233567
4.75913
0.0241436
4.76241
0.024931
4.7658
0.0257192
4.76927
0.0265084
4.77285
0.0272989
4.77653
0.0280909
4.7803
0.0288845
4.78418
0.0296805
0.0304773
4.78815
4.72394
-0.0170101
4.72136
-0.0161353
4.71892
-0.0152674
4.71663
-0.0144045
4.71448
-0.0135465
4.71248
-0.0126931
4.71062
-0.0118446
4.7089
-0.0110009
4.70732
-0.010162
4.70587
-0.0093282
4.70457
-0.00849944
4.7034
-0.0076758
4.70236
-0.00685732
4.70146
-0.00604403
4.70069
-0.00523602
4.70004
-0.00443319
4.69953
-0.00363568
4.69914
-0.00284347
4.69888
-0.00205649
4.69874
-0.00127475
4.69872
-0.000498176
4.69882
0.000273144
4.69904
0.00103941
4.69938
0.00180065
4.69984
0.00255694
4.70041
0.00330828
4.70109
0.00405494
4.70189
0.00479694
4.70279
0.00553443
4.70381
0.00626753
4.70493
0.00699642
4.70616
0.00772127
4.7075
0.00844223
4.70894
0.00915951
4.71049
0.0098732
4.71214
0.0105836
4.71389
0.011291
4.71574
0.0119953
4.7177
0.012697
4.71975
0.0133963
4.72191
0.0140932
4.72417
0.0147882
4.72652
0.0154814
4.72898
0.0161731
4.73153
0.0168634
4.73418
0.0175526
4.73694
0.0182411
4.73979
0.0189288
4.74274
0.0196159
4.7458
0.0203028
4.74895
0.0209897
4.75221
0.0216768
4.75556
0.0223643
4.75902
0.0230524
4.76257
0.0237413
4.76623
0.0244311
4.77
0.0251221
4.77386
0.0258147
0.0265076
4.77783
4.72078
-0.0141119
4.71803
-0.0133804
4.71542
-0.0126563
4.71295
-0.0119364
4.71062
-0.0112198
4.70844
-0.0105069
4.70639
-0.00979777
4.70448
-0.00909248
4.70271
-0.0083911
4.70108
-0.00769379
4.69958
-0.00700074
4.69821
-0.00631185
4.69698
-0.00562706
4.69589
-0.0049463
4.69492
-0.00426957
4.69408
-0.00359691
4.69338
-0.00292829
4.6928
-0.00226393
4.69234
-0.00160375
4.69202
-0.000947793
4.69181
-0.000295936
4.69174
0.000351766
4.69178
0.000995419
4.69194
0.00163504
4.69223
0.00227079
4.69264
0.0029026
4.69316
0.0035307
4.6938
0.00415504
4.69456
0.00477578
4.69544
0.00539307
4.69643
0.006007
4.69753
0.00661762
4.69875
0.00722513
4.70008
0.00782972
4.70152
0.00843138
4.70307
0.00903041
4.70473
0.00962681
4.70651
0.0102208
4.70839
0.0108126
4.71039
0.0114023
4.71249
0.0119901
4.7147
0.0125762
4.71702
0.0131606
4.71945
0.0137437
4.72199
0.0143255
4.72464
0.0149062
4.72739
0.015486
4.73026
0.0160652
4.73323
0.0166438
4.73631
0.0172219
4.7395
0.0177998
4.7428
0.0183776
4.74621
0.0189554
4.74973
0.0195335
4.75336
0.0201118
4.7571
0.0206906
4.76095
0.02127
4.76491
0.02185
0.0224306
4.76899
4.71897
-0.011122
4.71613
-0.010534
4.71342
-0.00994904
4.71085
-0.00936733
4.70842
-0.00878894
4.70613
-0.00821363
4.70397
-0.00764115
4.70195
-0.00707179
4.70007
-0.00650596
4.69832
-0.00594358
4.6967
-0.00538448
4.69522
-0.0048283
4.69386
-0.00427504
4.69264
-0.00372479
4.69155
-0.00317788
4.69059
-0.00263429
4.68975
-0.00209415
4.68905
-0.00155739
4.68847
-0.00102403
4.68801
-0.000493921
4.68768
3.2891e-05
4.68748
0.000556433
4.6874
0.00107664
4.68744
0.00159371
4.6876
0.00210759
4.68789
0.00261839
4.68829
0.00312609
4.68882
0.00363087
4.68946
0.0041327
4.69022
0.00463184
4.6911
0.00512826
4.69209
0.00562196
4.69321
0.00611319
4.69443
0.00660194
4.69578
0.00708841
4.69724
0.00757263
4.69881
0.00805475
4.70049
0.0085348
4.70229
0.00901305
4.70421
0.00948953
4.70623
0.00996437
4.70837
0.0104376
4.71062
0.0109096
4.71298
0.0113804
4.71546
0.01185
4.71805
0.0123187
4.72075
0.0127866
4.72356
0.0132537
4.72648
0.0137204
4.72952
0.0141866
4.73266
0.0146524
4.73592
0.0151183
4.7393
0.0155828
4.74278
0.0160492
4.74638
0.016515
4.75009
0.0169811
4.75391
0.0174474
4.75784
0.0179143
0.0183813
4.76189
4.71639
-0.00803297
4.71344
-0.00758313
4.71063
-0.0071391
4.70796
-0.0066971
4.70543
-0.00625657
4.70303
-0.00581805
4.70077
-0.00538189
4.69865
-0.00494811
4.69666
-0.00451624
4.6948
-0.00408643
4.69308
-0.00365917
4.69148
-0.00323458
4.69002
-0.00281304
4.68869
-0.00239431
4.68749
-0.0019783
4.68642
-0.0015649
4.68548
-0.00115405
4.68467
-0.000745812
4.68399
-0.000340229
4.68343
6.26375e-05
4.683
0.000462931
4.6827
0.000860531
4.68252
0.00125558
4.68246
0.00164804
4.68253
0.00203777
4.68273
0.00242487
4.68304
0.00280941
4.68348
0.0031913
4.68405
0.0035709
4.68473
0.00394812
4.68553
0.00432325
4.68646
0.00469646
4.68751
0.00506753
4.68867
0.00543677
4.68995
0.00580403
4.69136
0.00616936
4.69288
0.00653294
4.69452
0.00689477
4.69628
0.00725492
4.69815
0.0076136
4.70015
0.00797075
4.70226
0.00832655
4.70449
0.00868106
4.70683
0.00903437
4.7093
0.0093866
4.71188
0.00973778
4.71458
0.0100881
4.71739
0.0104387
4.72032
0.0107888
4.72337
0.0111386
4.72654
0.0114879
4.72982
0.0118378
4.73321
0.0121855
4.73673
0.0125366
4.74035
0.0128858
4.7441
0.0132341
4.74797
0.0135824
4.75195
0.0139308
0.0142793
4.75605
4.71627
-0.00487411
4.71325
-0.00456406
4.71036
-0.00425297
4.70761
-0.00394418
4.70499
-0.00363804
4.70251
-0.00333366
4.70016
-0.00303096
4.69794
-0.00273012
4.69585
-0.00243121
4.6939
-0.00213414
4.69208
-0.00183894
4.69039
-0.00154569
4.68883
-0.0012545
4.6874
-0.000965652
4.68611
-0.000679049
4.68494
-0.000394746
4.68389
-0.000112779
4.68298
0.000167027
4.6822
0.000444643
4.68154
0.000720142
4.68101
0.000993384
4.6806
0.00126452
4.68033
0.00153338
4.68017
0.00179979
4.68015
0.00206385
4.68025
0.00232579
4.68047
0.00258562
4.68082
0.0028434
4.68129
0.00309945
4.68188
0.00335393
4.6826
0.00360672
4.68344
0.00385776
4.6844
0.00410706
4.68548
0.00435458
4.68669
0.00460036
4.68801
0.00484446
4.68946
0.00508704
4.69102
0.00532816
4.69271
0.00556787
4.69452
0.00580618
4.69645
0.00604323
4.69849
0.00627888
4.70066
0.0065133
4.70295
0.00674651
4.70536
0.00697868
4.70789
0.00720973
4.71053
0.00743973
4.7133
0.0076702
4.71619
0.00790069
4.7192
0.00813109
4.72232
0.00836106
4.72557
0.00859132
4.72894
0.00882088
4.73242
0.009052
4.73602
0.00928207
4.73975
0.00951157
4.74359
0.00974137
4.74755
0.00997024
0.0101988
4.75163
4.71413
-0.00173116
4.71111
-0.00154455
4.70822
-0.00136468
4.70546
-0.00118682
4.70283
-0.00100988
4.70033
-0.000834648
4.69796
-0.000661418
4.69572
-0.000490283
4.69361
-0.000320979
4.69163
-0.000153606
4.68978
1.17489e-05
4.68806
0.00017516
4.68647
0.000336663
4.68501
0.000496085
4.68368
0.000653624
4.68247
0.000809125
4.6814
0.000962699
4.68045
0.0011143
4.67963
0.00126395
4.67894
0.00141169
4.67837
0.00155751
4.67794
0.00170136
4.67763
0.00184355
4.67744
0.00198431
4.67738
0.00212346
4.67745
0.00226094
4.67764
0.00239675
4.67795
0.00253091
4.67839
0.00266314
4.67895
0.00279329
4.67963
0.00292168
4.68044
0.00304851
4.68137
0.00317383
4.68243
0.00329773
4.68361
0.00342035
4.68491
0.00354166
4.68634
0.00366172
4.68789
0.0037805
4.68956
0.00389806
4.69135
0.00401445
4.69326
0.00412954
4.6953
0.00424338
4.69745
0.00435617
4.69973
0.00446802
4.70213
0.00457895
4.70465
0.00468912
4.70729
0.00479844
4.71006
0.00490743
4.71294
0.00501642
4.71595
0.00512512
4.71907
0.00523366
4.72232
0.00534206
4.72569
0.00545037
4.72919
0.0055588
4.7328
0.00566741
4.73654
0.00577652
4.74039
0.00588653
4.74437
0.00599501
0.00610651
4.74846
4.71632
4.71318
4.71017
4.70729
4.70455
4.70193
4.69945
4.69709
4.69487
4.69278
4.69081
4.68898
4.68728
4.68571
4.68427
4.68296
4.68178
4.68073
4.67981
4.67902
4.67835
4.67781
4.67741
4.67712
4.67697
4.67695
4.67705
4.67728
4.67763
4.67811
4.67872
4.67945
4.68031
4.68129
4.68239
4.68363
4.68499
4.68647
4.68808
4.68981
4.69166
4.69365
4.69575
4.69798
4.70034
4.70281
4.70542
4.70814
4.711
4.71397
4.71708
4.72031
4.72366
4.72714
4.73075
4.73448
4.73834
4.74233
4.74645
4.92029
-0.0749648
0.108766
4.88957
-0.0840313
0.11475
4.86374
-0.0855983
0.111427
4.84307
-0.081455
0.102127
4.82731
-0.0753114
0.0910754
4.81568
-0.0683024
0.0799302
4.80722
-0.060867
0.0693326
4.80115
-0.0536494
0.0597153
4.79683
-0.0470062
0.051324
4.79376
-0.0410793
0.0441465
4.79161
-0.0358921
0.0380463
4.79011
-0.0313834
0.0328824
4.78903
-0.0274311
0.0285107
4.78824
-0.0240248
0.0248157
4.78767
-0.0211439
0.0217115
4.78726
-0.0186912
0.0191044
4.78695
-0.016603
0.0169106
4.78672
-0.0148295
0.015063
4.78654
-0.0133308
0.0135133
4.78639
-0.012075
0.0122226
4.78627
-0.011036
0.0111575
4.78617
-0.0101927
0.0102945
4.78608
-0.00953088
0.00961213
4.78602
-0.00903281
0.00910119
4.78597
-0.00871307
0.00875794
-0.0084602
0.00855806
4.89905
-0.0478321
4.87366
-0.0586328
4.85227
-0.0642138
4.83474
-0.0639283
4.82056
-0.0611263
4.80944
-0.0571872
4.80099
-0.0524118
4.79461
-0.0472698
4.78985
-0.0422486
4.7863
-0.037524
4.78359
-0.0331877
4.78151
-0.0293019
4.78001
-0.0259281
4.77894
-0.0229559
4.7781
-0.0203086
4.77744
-0.0180265
4.77691
-0.0160698
4.77647
-0.0143919
4.7761
-0.0129617
4.77578
-0.0117573
4.7755
-0.0107588
4.77526
-0.00994714
4.77504
-0.00931261
4.77484
-0.00883457
4.77468
-0.00854705
-0.00833775
4.87977
-0.0293578
4.86187
-0.0407347
4.8452
-0.0475451
4.83107
-0.0497919
4.81918
-0.0492393
4.80921
-0.0472169
4.80116
-0.0443635
4.79475
-0.0408579
4.78975
-0.0372545
4.78583
-0.0336031
4.78277
-0.0301206
4.78036
-0.0268952
4.7784
-0.0239702
4.77682
-0.0213778
4.7756
-0.0190817
4.7746
-0.0170322
4.77377
-0.0152343
4.77305
-0.0136802
4.77244
-0.0123498
4.77191
-0.0112227
4.77143
-0.0102836
4.771
-0.00951795
4.77061
-0.00892157
4.77025
-0.0084726
4.76989
-0.00818536
-0.0080138
4.86022
-0.0164638
4.84656
-0.0270778
4.833
-0.0339841
4.82123
-0.0380234
4.81096
-0.03897
4.80207
-0.038328
4.79449
-0.0367844
4.78822
-0.0345853
4.78312
-0.0321591
4.77899
-0.0294719
4.77565
-0.0267786
4.77295
-0.0241965
4.77076
-0.0217763
4.76894
-0.0195594
4.76742
-0.0175578
4.76614
-0.015759
4.76507
-0.0141592
4.76414
-0.0127573
4.76334
-0.0115453
4.76263
-0.0105112
4.76199
-0.00964391
4.7614
-0.00893217
4.76086
-0.00837755
4.76035
-0.00796144
4.75985
-0.00768698
-0.0075134
4.84223
-0.00764026
4.8323
-0.0171442
4.822
-0.023688
4.81223
-0.0282521
4.80357
-0.0303106
4.79595
-0.0307094
4.78929
-0.0301167
4.78359
-0.0288935
4.77874
-0.0273022
4.77467
-0.0254098
4.77129
-0.0233912
4.76848
-0.0213919
4.76614
-0.0194334
4.76416
-0.0175805
4.76247
-0.0158719
4.76103
-0.0143148
4.75978
-0.0129124
4.75869
-0.0116685
4.75773
-0.0105825
4.75687
-0.00965081
4.75609
-0.00886461
4.75537
-0.00820839
4.75469
-0.00769571
4.75404
-0.00731004
4.75344
-0.00709574
-0.00698568
4.82547
-0.00138811
4.818
-0.00966807
4.81024
-0.0159275
4.80222
-0.0202356
4.79488
-0.0229736
4.78828
-0.0241102
4.7824
-0.0242284
4.77718
-0.0236806
4.77258
-0.0227017
4.7686
-0.0214245
4.76519
-0.0199822
4.76229
-0.0184895
4.7598
-0.0169483
4.75766
-0.015443
4.75581
-0.0140202
4.7542
-0.0127007
4.75278
-0.011496
4.75153
-0.0104144
4.7504
-0.00945996
4.74939
-0.00863426
4.74846
-0.00793289
4.74759
-0.00734393
4.74678
-0.00688155
4.746
-0.00653702
4.74522
-0.00631523
-0.00616041
4.81071
0.00283386
4.80533
-0.00428859
4.79928
-0.00987416
4.79297
-0.0139219
4.7868
-0.0168033
4.78108
-0.01839
4.77587
-0.0190209
4.77118
-0.0189884
4.76698
-0.0185078
4.76326
-0.0177003
4.75999
-0.0167147
4.75712
-0.0156166
4.75461
-0.0144368
4.75241
-0.0132486
4.75049
-0.012095
4.74879
-0.0110018
4.74728
-0.00998613
4.74592
-0.00906103
4.7447
-0.00823542
4.74358
-0.00751208
4.74254
-0.00689373
4.74157
-0.00637676
4.74066
-0.00596924
4.73979
-0.0056675
4.73898
-0.00550644
-0.0054472
4.79761
0.00579737
4.79356
-0.000239704
4.78888
-0.00519342
4.78392
-0.00896138
4.77881
-0.0116934
4.77389
-0.0134711
4.76929
-0.0144149
4.76507
-0.014774
4.76125
-0.0146795
4.75778
-0.0142359
4.75465
-0.0135827
4.75183
-0.0127959
4.74931
-0.0119199
4.74707
-0.011005
4.74507
-0.0100975
4.74328
-0.00921641
4.74168
-0.00837794
4.74022
-0.00760208
4.73888
-0.006901
4.73765
-0.00628104
4.73651
-0.00574908
4.73544
-0.00530502
4.73442
-0.00494872
4.73343
-0.00468314
4.73243
-0.00450857
-0.0043971
4.78622
0.00773221
4.78331
0.00266535
4.77969
-0.00157345
4.77568
-0.00494379
4.77147
-0.00748458
4.76727
-0.00926889
4.76323
-0.0103813
4.75943
-0.0109742
4.7559
-0.0111497
4.75266
-0.0109963
4.7497
-0.0106223
4.74701
-0.0101046
4.74457
-0.00947976
4.74235
-0.00878366
4.74033
-0.00807979
4.7385
-0.00738527
4.73683
-0.00671118
4.73531
-0.00607748
4.73391
-0.00549688
4.7326
-0.00497846
4.73138
-0.0045302
4.73023
-0.00415467
4.72914
-0.00385325
4.72808
-0.00362902
4.72709
-0.00351181
-0.00348808
4.77649
0.00907087
4.77428
0.00487823
4.77145
0.00125493
4.7682
-0.00169574
4.76471
-0.00399465
4.76114
-0.00569478
4.75762
-0.00685815
4.75421
-0.00757114
4.75098
-0.00791879
4.74796
-0.00797804
4.74517
-0.00782766
4.74259
-0.00752239
4.74021
-0.00710597
4.73803
-0.00659825
4.73601
-0.00606114
4.73415
-0.00552616
4.73244
-0.004999
4.73086
-0.00449461
4.72938
-0.00402644
4.72801
-0.00360483
4.72672
-0.00323703
4.72549
-0.00292618
4.72431
-0.00267696
4.72318
-0.00249256
4.72204
-0.00237409
-0.00230197
4.76817
0.00989108
4.76658
0.00647015
4.76435
0.00347901
4.76169
0.000963628
4.75876
-0.00106159
4.75569
-0.00262035
4.75258
-0.00375341
4.74953
-0.00451568
4.74658
-0.00496877
4.74377
-0.00517101
4.74112
-0.00517733
4.73863
-0.005035
4.73631
-0.0047864
4.73417
-0.00445176
4.73218
-0.0040708
4.73033
-0.00368203
4.72861
-0.00328219
4.72701
-0.00289029
4.7255
-0.00251935
4.72408
-0.00218475
4.72274
-0.00189338
4.72146
-0.00164578
4.72023
-0.00144783
4.71904
-0.00130154
4.71789
-0.00122487
-0.00120828
4.76134
0.0104454
4.76009
0.00771913
4.7583
0.00526958
4.75609
0.00317265
4.75359
0.00143997
4.75091
5.96233e-05
4.74815
-0.000992779
4.74538
-0.00175086
4.74267
-0.00225492
4.74005
-0.00254672
4.73754
-0.00266709
4.73515
-0.00265348
4.73291
-0.00253812
4.7308
-0.0023461
4.72883
-0.00210423
4.72699
-0.00184154
4.72527
-0.00155541
4.72364
-0.00126622
4.72211
-0.000986648
4.72066
-0.000731838
4.71927
-0.000510186
4.71795
-0.000321821
4.71667
-0.000170375
4.71543
-5.84395e-05
4.71419
1.10514e-05
5.00023e-05
4.75574
0.0107554
4.75481
0.00865417
4.75334
0.00673903
4.75146
0.00504745
4.74929
0.00360847
4.74693
0.00242405
4.74446
0.00148218
4.74194
0.000765098
4.73944
0.000248959
4.73698
-9.42884e-05
4.73461
-0.000293714
4.73233
-0.000376961
4.73016
-0.000368937
4.72811
-0.000292206
4.72617
-0.000164507
4.72433
-4.90787e-06
4.7226
0.000178577
4.72096
0.000372015
4.71941
0.000563163
4.71794
0.000742013
4.71653
0.000900432
4.71517
0.00103566
4.71385
0.00114444
4.71257
0.00122504
4.71131
0.00126962
0.00128394
4.75142
0.0109654
4.75062
0.0094505
4.74935
0.00801488
4.74769
0.00670858
4.74573
0.00556252
4.74357
0.00458034
4.74129
0.00376251
4.73895
0.00310608
4.7366
0.00260058
4.73428
0.00222949
4.73201
0.00197386
4.72982
0.00181458
4.72772
0.0017341
4.72571
0.00171363
4.7238
0.00174233
4.72199
0.00180699
4.72027
0.00189655
4.71864
0.00200126
4.7171
0.00211172
4.71562
0.00221983
4.7142
0.00231933
4.71283
0.00240641
4.7115
0.00247729
4.71019
0.00253042
4.7089
0.00256171
0.00257633
4.74833
0.0110923
4.74766
0.0101219
4.74655
0.00913132
4.74506
0.00819307
4.74328
0.0073402
4.7413
0.00656247
4.73919
0.00587774
4.73699
0.00529718
4.73477
0.00482145
4.73256
0.00444363
4.73038
0.00415305
4.72826
0.00393786
4.7262
0.00378683
4.72423
0.00368713
4.72234
0.00363147
4.72054
0.00361018
4.71882
0.00361488
4.71718
0.00363852
4.71562
0.00367433
4.71412
0.00371625
4.71268
0.00375937
4.71129
0.00380002
4.70993
0.00383507
4.7086
0.00386223
4.70728
0.0038787
0.00388543
4.74624
4.74555
4.74443
4.74297
4.74125
4.73935
4.73733
4.73524
4.73312
4.731
4.72891
4.72687
4.7249
4.72299
4.72115
4.7194
4.71772
4.71611
4.71457
4.71309
4.71167
4.71028
4.70892
4.70759
4.70627
4.68722
0.00466317
-0.00438063
4.68645
0.0139775
-0.0132142
4.68526
0.0238739
-0.0226823
4.68379
0.0348024
-0.0333305
4.6823
0.0472271
-0.0457323
4.68124
0.0616714
-0.060615
4.68135
0.0786781
-0.0787871
4.68393
0.098947
-0.101531
4.69046
0.122764
-0.129297
0.152125
4.70156
-0.163225
4.68742
0.0047392
4.6872
0.0142038
4.68693
0.024144
4.6868
0.0349304
4.68712
0.046906
4.68838
0.0604145
4.6913
0.0757592
4.69704
0.0931999
4.70734
0.112467
0.132964
4.7265
4.68757
0.00467022
4.68778
0.0139884
4.68825
0.0236817
4.68915
0.0340231
4.69081
0.0452484
4.69367
0.0575554
4.69836
0.0710717
4.70575
0.0858114
4.71663
0.101582
0.118077
4.73152
4.68769
0.00448431
4.68824
0.0134387
4.68925
0.0226632
4.69092
0.0323544
4.69351
0.042659
4.6974
0.0536707
4.70307
0.0653958
4.71116
0.0777225
4.72249
0.0902516