/*--------------------------------*- C++ -*----------------------------------*\
| =========                 |                                                 |
| \\      /  F ield         | OpenFOAM: The Open Source CFD Toolbox           |
|  \\    /   O peration     | Version:  2412                                  |
|   \\  /    A nd           | Website:  www.openfoam.com                      |
|    \\/     M anipulation  |                                                 |
\*---------------------------------------------------------------------------*/
FoamFile
{
    version     2.0;
    format      ascii;
    arch        "LSB;label=32;scalar=64";
    class       volVectorField;
    location    "1500";
    object      U;
}
// * * * * * * * * * * * * * * * * * * * * * * * * * * * * * * * * * * * * * //

dimensions      [0 1 -1 0 0 0 0];

internalField   nonuniform List<vector> 
14132
(
(4.9999 0.00451553 0)
(4.99943 0.0136514 0)
(4.9984 0.0234057 0)
(4.99693 0.0342759 0)
(4.99529 0.0467807 0)
(4.99384 0.061553 0)
(4.99315 0.0792571 0)
(4.99434 0.100952 0)
(4.99861 0.126665 0)
(5.00828 0.159438 0)
(4.99998 0.00468777 0)
(4.99984 0.0141642 0)
(4.99957 0.0241804 0)
(4.99932 0.0351445 0)
(4.99934 0.0474618 0)
(5.00009 0.0615631 0)
(5.00211 0.0778744 0)
(5.00661 0.096825 0)
(5.0144 0.118456 0)
(5.0303 0.143148 0)
(5.00002 0.00469447 0)
(5.00016 0.0141577 0)
(5.0005 0.0240443 0)
(5.00119 0.0346753 0)
(5.00248 0.0463396 0)
(5.0048 0.0593034 0)
(5.00864 0.0737717 0)
(5.01494 0.0898574 0)
(5.02422 0.107327 0)
(5.03859 0.125557 0)
(5.00007 0.00456991 0)
(5.0004 0.0137615 0)
(5.0012 0.0232723 0)
(5.00261 0.0333386 0)
(5.00482 0.0441486 0)
(5.00819 0.0558414 0)
(5.01314 0.0684733 0)
(5.02042 0.0819769 0)
(5.0303 0.0960207 0)
(5.04549 0.109983 0)
(5.0001 0.0043464 0)
(5.00057 0.0130759 0)
(5.00171 0.02203 0)
(5.00362 0.0313684 0)
(5.00643 0.0412001 0)
(5.01044 0.0515758 0)
(5.01598 0.0624594 0)
(5.02356 0.0736927 0)
(5.03337 0.0849251 0)
(5.04651 0.0953606 0)
(5.00012 0.00405454 0)
(5.00069 0.0121875 0)
(5.00205 0.020466 0)
(5.00427 0.0289882 0)
(5.00745 0.0378054 0)
(5.01179 0.0469105 0)
(5.01754 0.0562169 0)
(5.02508 0.0655273 0)
(5.03444 0.0745229 0)
(5.04685 0.0825228 0)
(5.00014 0.00371834 0)
(5.00076 0.0111687 0)
(5.00225 0.0187031 0)
(5.00465 0.0263732 0)
(5.00801 0.0341898 0)
(5.01246 0.0421111 0)
(5.01819 0.0500277 0)
(5.02542 0.0577383 0)
(5.03416 0.0649676 0)
(5.04488 0.0710788 0)
(5.00014 0.0033566 0)
(5.00079 0.010076 0)
(5.00236 0.0168348 0)
(5.00483 0.0236512 0)
(5.00823 0.0305104 0)
(5.01266 0.0373524 0)
(5.01821 0.0440626 0)
(5.02504 0.0504527 0)
(5.03309 0.056297 0)
(5.04287 0.061078 0)
(5.00014 0.00298301 0)
(5.00081 0.00895031 0)
(5.00239 0.0149271 0)
(5.00487 0.0209104 0)
(5.00824 0.0268702 0)
(5.01255 0.0327399 0)
(5.01785 0.0384101 0)
(5.02422 0.0437143 0)
(5.03158 0.048471 0)
(5.04008 0.0522438 0)
(5.00014 0.00260693 0)
(5.0008 0.00781858 0)
(5.00238 0.013023 0)
(5.00483 0.0182055 0)
(5.00812 0.0233292 0)
(5.01226 0.0283278 0)
(5.01728 0.0331023 0)
(5.02321 0.0375106 0)
(5.02994 0.0414089 0)
(5.03772 0.0444422 0)
(5.00014 0.00223322 0)
(5.00079 0.00669604 0)
(5.00235 0.0111463 0)
(5.00475 0.0155645 0)
(5.00794 0.0199127 0)
(5.01191 0.0241299 0)
(5.01665 0.0281318 0)
(5.02216 0.0318017 0)
(5.02834 0.035029 0)
(5.03513 0.037543 0)
(5.00014 0.00186344 0)
(5.00078 0.0055876 0)
(5.00231 0.00930527 0)
(5.00467 0.0129978 0)
(5.00776 0.0166262 0)
(5.01157 0.0201342 0)
(5.01608 0.0234501 0)
(5.02125 0.0264803 0)
(5.02697 0.0291386 0)
(5.03341 0.0311909 0)
(5.00014 0.00149586 0)
(5.00078 0.00448789 0)
(5.0023 0.00748995 0)
(5.00462 0.0104918 0)
(5.00763 0.0134623 0)
(5.0113 0.0163551 0)
(5.0156 0.0191125 0)
(5.02046 0.0216617 0)
(5.02581 0.0239409 0)
(5.03135 0.0258156 0)
(5.00014 0.00112496 0)
(5.00079 0.00339168 0)
(5.00233 0.0056915 0)
(5.00465 0.00799631 0)
(5.00764 0.0102767 0)
(5.01125 0.0124996 0)
(5.01542 0.014623 0)
(5.02014 0.0165977 0)
(5.02525 0.0183797 0)
(5.03103 0.0198434 0)
(5.00016 0.000726759 0)
(5.00085 0.00226846 0)
(5.0024 0.00397155 0)
(5.0047 0.00577069 0)
(5.00763 0.00761755 0)
(5.01115 0.00947596 0)
(5.01521 0.0113093 0)
(5.01973 0.0130812 0)
(5.02466 0.0147741 0)
(5.02945 0.0163835 0)
(5.00022 0.000257996 0)
(5.00113 0.000846197 0)
(5.00289 0.00157328 0)
(5.00534 0.00239923 0)
(5.00839 0.00333523 0)
(5.01198 0.00433179 0)
(5.01607 0.00535734 0)
(5.02065 0.00638927 0)
(5.02561 0.0074383 0)
(5.03126 0.00865979 0)
(5.01639 0.177116 0)
(5.02067 0.181841 0)
(5.02534 0.186608 -9.20833e-23)
(5.03018 0.191398 -3.13349e-21)
(5.03539 0.196164 -2.07267e-21)
(5.04112 0.200878 3.04536e-21)
(5.04736 0.205506 -1.56943e-21)
(5.05408 0.210008 -1.15988e-21)
(5.06131 0.214332 -2.62485e-21)
(5.06906 0.218414 -2.07812e-23)
(5.07705 0.222209 -6.70627e-23)
(5.08589 0.225687 0)
(5.09516 0.228805 0)
(5.10484 0.231519 0)
(5.11498 0.233783 0)
(5.12557 0.235555 -2.07792e-22)
(5.13655 0.236793 -8.31907e-23)
(5.14787 0.237455 0)
(5.15947 0.237495 0)
(5.17129 0.236879 -1.49438e-22)
(5.18328 0.235576 3.67979e-21)
(5.19536 0.233562 -2.23851e-21)
(5.20746 0.230816 -2.12191e-21)
(5.21949 0.227328 1.1587e-21)
(5.23139 0.22309 -1.08117e-21)
(5.24306 0.218103 -1.73007e-22)
(5.25444 0.212376 -1.62133e-21)
(5.26544 0.205921 0)
(5.27598 0.198758 4.84138e-22)
(5.28602 0.190911 2.81532e-23)
(5.29547 0.182407 -5.6706e-22)
(5.3043 0.173264 0)
(5.31245 0.16352 -6.80711e-22)
(5.31988 0.153089 2.27054e-21)
(5.3266 0.142296 -2.00482e-21)
(5.33257 0.131972 -2.87985e-22)
(5.33774 0.121271 4.47114e-21)
(5.34203 0.111031 0)
(5.34543 0.0998057 -9.9178e-21)
(5.348 0.0882741 6.2636e-21)
(5.3498 0.0766355 3.77789e-21)
(5.35083 0.0649777 0)
(5.3511 0.0533627 6.06917e-22)
(5.35066 0.0418447 -1.00237e-20)
(5.34951 0.0304739 -8.18088e-21)
(5.34772 0.0192941 0)
(5.34531 0.00835699 0)
(5.34232 -0.00233624 1.08909e-20)
(5.3388 -0.0125857 1.01405e-20)
(5.33481 -0.0230592 1.08193e-23)
(5.33044 -0.0331842 5.575e-22)
(5.32576 -0.042805 7.53559e-21)
(5.32079 -0.0518872 5.33657e-22)
(5.31558 -0.0604615 0)
(5.31016 -0.068513 0)
(5.30458 -0.0761185 9.19623e-21)
(5.29888 -0.0831674 -2.39623e-22)
(5.29311 -0.0900272 0)
(5.2873 -0.0958303 0)
(5.04311 0.157658 0)
(5.04815 0.161863 0)
(5.05294 0.166007 0)
(5.05765 0.170071 -8.11366e-23)
(5.06269 0.174044 2.98503e-21)
(5.06805 0.177907 -5.21743e-23)
(5.0737 0.181633 8.57002e-22)
(5.07953 0.185195 1.18987e-21)
(5.08575 0.188568 7.51946e-22)
(5.09218 0.191729 1.28215e-22)
(5.09883 0.194631 -4.43294e-23)
(5.10574 0.197227 3.09516e-23)
(5.11287 0.199499 -8.734e-22)
(5.12021 0.201424 8.69472e-23)
(5.12774 0.202973 -8.68468e-23)
(5.13544 0.20411 1.35748e-21)
(5.14329 0.204809 1.26075e-22)
(5.15126 0.205045 0)
(5.15932 0.204797 0)
(5.16745 0.204047 -1.5281e-21)
(5.1756 0.202781 5.17564e-23)
(5.18374 0.200987 -2.27342e-22)
(5.19184 0.19866 2.13193e-21)
(5.19986 0.195797 -1.78145e-22)
(5.20775 0.192404 1.26242e-21)
(5.21549 0.188487 -1.62571e-22)
(5.22303 0.184061 8.01341e-22)
(5.23033 0.179142 8.56502e-23)
(5.23738 0.173753 3.26525e-22)
(5.24412 0.16792 0)
(5.25053 0.161673 4.05052e-22)
(5.25658 0.155045 -7.84357e-22)
(5.26224 0.148073 1.17455e-21)
(5.26748 0.140788 -4.39648e-22)
(5.27227 0.132761 2.2503e-21)
(5.27662 0.124643 1.8663e-21)
(5.28052 0.116786 -4.46526e-21)
(5.284 0.109068 0)
(5.28706 0.100912 4.35839e-21)
(5.28963 0.0926088 3.4796e-21)
(5.2917 0.0842664 -4.43292e-21)
(5.29326 0.075937 -4.9925e-22)
(5.29436 0.0676609 9.99688e-22)
(5.295 0.0594739 7.90632e-21)
(5.29518 0.0514091 9.37777e-21)
(5.29491 0.0434954 0)
(5.29422 0.0357657 -6.60554e-21)
(5.2931 0.0282235 -3.44231e-24)
(5.29158 0.0209824 -9.80319e-22)
(5.28967 0.0136796 4.87778e-22)
(5.28735 0.00648145 0)
(5.28464 -0.000417837 -8.13083e-21)
(5.28155 -0.00696119 4.60116e-22)
(5.27814 -0.0131393 -6.5896e-21)
(5.27443 -0.0189764 -8.92295e-22)
(5.27046 -0.0244868 6.56156e-21)
(5.26624 -0.0296875 2.15448e-22)
(5.26177 -0.0345966 0)
(5.25708 -0.039182 0)
(5.04836 0.135613 -1.15047e-21)
(5.05218 0.138178 0)
(5.0561 0.140575 3.29059e-23)
(5.06 0.142849 5.83281e-22)
(5.06407 0.144991 -4.30135e-22)
(5.06838 0.146984 -3.77813e-22)
(5.07289 0.148814 6.11692e-22)
(5.07757 0.150462 0)
(5.08243 0.151917 3.1932e-22)
(5.08746 0.153177 -4.86597e-22)
(5.09267 0.154235 -1.62982e-23)
(5.09805 0.155076 0)
(5.10358 0.155687 -1.16231e-22)
(5.10926 0.156053 5.9993e-22)
(5.11506 0.156162 8.77361e-23)
(5.12098 0.156005 -8.76704e-23)
(5.127 0.155572 0)
(5.13309 0.154854 1.02945e-21)
(5.13924 0.153844 0)
(5.14542 0.152536 0)
(5.15162 0.150924 -1.56277e-21)
(5.1578 0.149004 0)
(5.16394 0.146775 0)
(5.17002 0.144238 -9.93747e-22)
(5.176 0.141392 -1.19745e-22)
(5.18187 0.138252 5.87559e-22)
(5.1876 0.134785 0)
(5.19316 0.131001 0)
(5.19853 0.126916 -4.20583e-23)
(5.20369 0.122541 -3.73871e-23)
(5.20861 0.117885 -6.28132e-22)
(5.21327 0.112955 7.40323e-22)
(5.21767 0.107746 1.68773e-22)
(5.22178 0.102274 4.8295e-24)
(5.22558 0.0966279 -1.73236e-22)
(5.22906 0.0911741 -1.64963e-21)
(5.23221 0.0856111 -1.35213e-21)
(5.23505 0.0800498 1.37513e-21)
(5.23758 0.0743182 0)
(5.23975 0.0687941 -1.07402e-21)
(5.24157 0.062854 3.85173e-22)
(5.24305 0.0567976 2.88004e-21)
(5.24419 0.0507095 -3.93462e-22)
(5.24502 0.044624 -2.91225e-21)
(5.24552 0.0385652 3.94226e-22)
(5.24571 0.0325541 0)
(5.24561 0.0266107 1.30046e-20)
(5.24523 0.0207524 0)
(5.24457 0.0149996 -6.18244e-21)
(5.24366 0.00936007 3.88482e-22)
(5.24249 0.00384934 -5.7163e-21)
(5.24106 -0.00153462 3.77389e-22)
(5.23939 -0.00669587 -6.35305e-21)
(5.23752 -0.011956 7.00463e-21)
(5.23549 -0.0169359 -5.82158e-21)
(5.23331 -0.0219126 -1.13991e-20)
(5.23101 -0.0263265 0)
(5.22857 -0.0309214 0)
(5.22608 -0.0342075 5.10044e-21)
(5.05568 0.117703 1.83069e-21)
(5.05935 0.119686 0)
(5.06294 0.121534 -1.37903e-23)
(5.06647 0.123285 -6.57222e-22)
(5.07015 0.124941 -5.12362e-22)
(5.07399 0.126491 3.45328e-22)
(5.07796 0.127926 1.56514e-22)
(5.08202 0.129236 0)
(5.08618 0.130411 -6.90794e-22)
(5.09043 0.131442 -1.95568e-22)
(5.09477 0.132318 -5.57034e-23)
(5.09918 0.13303 -8.80834e-22)
(5.10367 0.133567 9.11452e-22)
(5.10821 0.133919 -4.30543e-22)
(5.1128 0.134079 -9.08408e-22)
(5.11742 0.134039 -1.18659e-23)
(5.12209 0.133789 1.14074e-22)
(5.12675 0.133324 -1.16922e-21)
(5.13142 0.132636 1.37691e-22)
(5.13608 0.13172 1.13343e-21)
(5.14071 0.130573 0)
(5.1453 0.129193 0)
(5.14984 0.12758 -6.88481e-22)
(5.15432 0.125734 0)
(5.15871 0.123657 -1.08632e-22)
(5.16301 0.121353 -6.49669e-22)
(5.16719 0.118828 -1.13758e-22)
(5.17126 0.116089 0)
(5.17518 0.113144 -4.00196e-22)
(5.17894 0.110001 3.26783e-23)
(5.18254 0.106672 4.3099e-22)
(5.18595 0.103163 -2.8516e-22)
(5.18917 0.0995155 1.44989e-22)
(5.19218 0.0956141 3.83921e-22)
(5.19498 0.0914051 0)
(5.19756 0.0870842 0)
(5.19995 0.0829 2.4859e-21)
(5.20216 0.0787288 -2.52794e-21)
(5.20415 0.0745832 3.23635e-22)
(5.20593 0.0702577 -2.84242e-21)
(5.20751 0.0657905 3.51177e-24)
(5.20885 0.0612703 -3.23093e-21)
(5.20995 0.0567283 3.35317e-22)
(5.21081 0.0521829 4.99877e-22)
(5.21144 0.0476494 1.14628e-24)
(5.21186 0.0431412 -3.37401e-22)
(5.21205 0.0386712 -5.87487e-21)
(5.21203 0.034251 0)
(5.2118 0.0298914 5.49668e-21)
(5.21136 0.0256031 -4.88109e-21)
(5.21072 0.0213935 1.09477e-20)
(5.20989 0.0172875 -3.29099e-22)
(5.20887 0.0132378 1.49574e-21)
(5.20767 0.00916648 -3.25703e-22)
(5.20628 0.00519732 5.49275e-21)
(5.20471 0.0013597 5.25343e-21)
(5.20296 -0.00231259 1.56711e-22)
(5.20105 -0.00583627 0)
(5.19904 -0.00922741 -6.65294e-22)
(5.05492 0.100868 -6.81961e-22)
(5.05784 0.102137 0)
(5.06075 0.103255 -1.44228e-22)
(5.06364 0.104273 3.35881e-23)
(5.0666 0.105197 1.08606e-24)
(5.06967 0.106019 -2.00274e-22)
(5.07282 0.106733 1.62249e-22)
(5.07603 0.107333 2.55491e-23)
(5.0793 0.107815 4.69661e-22)
(5.08263 0.108174 -6.9001e-23)
(5.08602 0.108403 -9.17552e-22)
(5.08946 0.1085 9.2925e-22)
(5.09295 0.108459 1.29419e-22)
(5.09648 0.108277 -6.9194e-23)
(5.10003 0.10795 7.17241e-22)
(5.10362 0.107474 7.41559e-22)
(5.10722 0.106848 0)
(5.11083 0.10607 0)
(5.11444 0.105137 0)
(5.11804 0.10405 1.61193e-24)
(5.12162 0.102808 4.02717e-22)
(5.12518 0.101413 -7.18437e-22)
(5.1287 0.0998659 8.4241e-22)
(5.13217 0.0981673 5.45999e-22)
(5.13558 0.0963198 7.44271e-22)
(5.13892 0.0943263 4.04119e-22)
(5.14219 0.0921903 0)
(5.14537 0.0899159 -1.8662e-22)
(5.14845 0.0875093 1.14415e-22)
(5.15143 0.0849728 0)
(5.1543 0.0823297 -1.50161e-22)
(5.15705 0.079518 4.92052e-22)
(5.15966 0.076562 0)
(5.16215 0.0734857 -5.32174e-22)
(5.16448 0.070307 0)
(5.16664 0.067005 9.29619e-22)
(5.16865 0.0636513 -8.77549e-22)
(5.17051 0.0604278 1.15522e-21)
(5.17225 0.0571396 -5.20631e-22)
(5.17384 0.0539026 2.62104e-22)
(5.17526 0.0505603 0)
(5.17651 0.0473636 -2.02135e-21)
(5.17759 0.0439523 -1.76546e-21)
(5.17851 0.0404872 1.23434e-22)
(5.17927 0.0370119 0)
(5.17988 0.0335427 -2.77129e-22)
(5.18032 0.0300902 5.5453e-22)
(5.18061 0.0266639 -5.5513e-22)
(5.18076 0.0232722 3.7767e-26)
(5.18076 0.0199233 5.46792e-21)
(5.18062 0.0166249 -5.44371e-21)
(5.18035 0.0133848 4.13774e-21)
(5.17995 0.0102098 5.37379e-21)
(5.17943 0.00710106 -4.3665e-21)
(5.17877 0.00407106 0)
(5.17799 0.00109818 -4.03221e-21)
(5.1771 -0.00168826 -3.99492e-21)
(5.17609 -0.00479876 0)
(5.17503 -0.00728581 -4.48643e-21)
(5.05475 0.0867439 1.47362e-22)
(5.05738 0.0877227 0)
(5.05996 0.0885883 1.4578e-22)
(5.06251 0.0893763 -3.50962e-23)
(5.06512 0.0900925 0)
(5.06781 0.0907331 5.23611e-22)
(5.07054 0.091294 -2.6667e-22)
(5.07331 0.0917716 -3.05168e-23)
(5.07611 0.0921626 0)
(5.07895 0.0924636 3.66287e-22)
(5.08183 0.0926709 1.20661e-21)
(5.08472 0.0927814 -6.72132e-23)
(5.08764 0.0927918 -7.4959e-24)
(5.09057 0.0926994 7.47423e-23)
(5.09351 0.0925015 0)
(5.09645 0.0921957 -1.34942e-21)
(5.09939 0.09178 -9.73591e-23)
(5.10233 0.0912527 -1.12339e-22)
(5.10524 0.0906125 -7.53005e-22)
(5.10814 0.0898582 -5.49769e-22)
(5.11101 0.0889885 -5.3696e-22)
(5.11384 0.0880032 4.2775e-22)
(5.11663 0.0869028 1.41263e-22)
(5.11938 0.0856881 5.98206e-24)
(5.12207 0.0843605 -4.47622e-22)
(5.12471 0.082922 0)
(5.12727 0.0813749 0)
(5.12977 0.0797222 1.87277e-22)
(5.13219 0.0779673 1.16547e-23)
(5.13453 0.0761139 3.60528e-25)
(5.13678 0.074166 -1.90842e-22)
(5.13894 0.0721291 -2.12814e-22)
(5.14099 0.0700088 0)
(5.14294 0.0678088 -3.84901e-22)
(5.14477 0.0655419 1.08165e-22)
(5.14647 0.0631867 -1.04183e-21)
(5.14805 0.0606473 2.23849e-22)
(5.14951 0.0580866 -1.27883e-21)
(5.15087 0.0556075 -3.19335e-24)
(5.15212 0.0531292 -2.94484e-24)
(5.15328 0.0506801 2.18964e-21)
(5.15432 0.0480943 2.03353e-21)
(5.15526 0.045462 2.05077e-21)
(5.15607 0.0428085 3.59339e-21)
(5.15674 0.040144 -2.42402e-22)
(5.1573 0.0374758 2.42214e-22)
(5.15773 0.0348107 2.43949e-22)
(5.15804 0.0321546 -2.43756e-22)
(5.15824 0.0295131 1.56107e-21)
(5.15832 0.0268918 2.05042e-21)
(5.15829 0.0242958 0)
(5.15815 0.0217301 -5.52224e-22)
(5.1579 0.0191989 -3.59486e-21)
(5.15755 0.0167077 5.31933e-22)
(5.15709 0.014258 0)
(5.15654 0.0118703 3.93302e-21)
(5.15589 0.00948279 4.13197e-21)
(5.15514 0.00709026 0)
(5.15431 0.0047378 0)
(5.05152 0.0742042 -1.47518e-22)
(5.05367 0.0748722 0)
(5.0558 0.0754343 1.82829e-22)
(5.05791 0.0759257 0)
(5.06006 0.0763523 2.07892e-23)
(5.06226 0.0767118 -3.68984e-22)
(5.06448 0.0770013 0)
(5.06673 0.077219 -3.02038e-22)
(5.069 0.0773629 -3.89481e-22)
(5.07129 0.0774309 4.26056e-22)
(5.07359 0.077421 -4.3548e-22)
(5.07591 0.0773315 0)
(5.07824 0.0771608 -4.54704e-22)
(5.08058 0.0769076 -6.76931e-23)
(5.08292 0.0765707 6.11299e-22)
(5.08526 0.0761492 7.91456e-22)
(5.08759 0.0756424 -8.56645e-23)
(5.08992 0.07505 8.41286e-22)
(5.09224 0.0743718 7.69842e-22)
(5.09453 0.0736078 -4.50029e-23)
(5.09681 0.0727588 0)
(5.09906 0.0718258 4.57324e-22)
(5.10129 0.0708099 4.77803e-22)
(5.10347 0.0697124 -4.964e-22)
(5.10562 0.0685348 -3.59026e-22)
(5.10773 0.0672788 7.10588e-23)
(5.10979 0.0659466 -7.10209e-23)
(5.1118 0.0645405 -1.90076e-23)
(5.11375 0.0630629 -5.4917e-23)
(5.11564 0.0615168 0)
(5.11747 0.0599051 2.36961e-22)
(5.11924 0.0582311 2.07071e-23)
(5.12093 0.0564984 0)
(5.12255 0.0547117 3.86603e-22)
(5.1241 0.0528749 -4.32402e-22)
(5.12557 0.0509965 1.83028e-22)
(5.12695 0.0490705 -6.1271e-22)
(5.12824 0.0470636 -7.55112e-23)
(5.12944 0.04499 0)
(5.13055 0.0428253 0)
(5.1316 0.0407613 -1.92784e-21)
(5.13257 0.0387801 1.98126e-22)
(5.13345 0.0367288 -2.02194e-22)
(5.13425 0.0347849 -1.57591e-21)
(5.13494 0.0327325 -1.54992e-21)
(5.13555 0.0306386 2.06269e-22)
(5.13608 0.0285383 1.36119e-21)
(5.13652 0.0264424 -2.07862e-22)
(5.13687 0.0243562 -1.3979e-21)
(5.13714 0.0222843 -2.02298e-21)
(5.13733 0.0202308 -1.58238e-21)
(5.13744 0.0181997 -2.24751e-21)
(5.13747 0.0161948 3.81967e-21)
(5.13743 0.0142196 3.39016e-21)
(5.13731 0.0122774 2.07398e-22)
(5.13712 0.0103724 0)
(5.13687 0.00850514 0)
(5.13654 0.00668253 0)
(5.13616 0.00488158 -3.08423e-21)
(5.04892 0.0635202 2.0899e-24)
(5.05083 0.0640437 -2.09142e-24)
(5.05271 0.0644855 1.01191e-22)
(5.05457 0.0648723 0)
(5.05645 0.065209 2.78823e-23)
(5.05838 0.0654946 -2.78991e-23)
(5.06032 0.0657274 2.86223e-22)
(5.06227 0.0659062 6.25525e-22)
(5.06424 0.0660297 6.5821e-22)
(5.06622 0.0660966 -5.08772e-24)
(5.0682 0.0661057 -5.10448e-24)
(5.07019 0.0660558 5.30673e-22)
(5.07219 0.065946 -5.53376e-23)
(5.07418 0.0657753 -4.78668e-22)
(5.07618 0.065543 -6.90915e-22)
(5.07816 0.0652485 7.88148e-23)
(5.08014 0.0648913 3.29308e-22)
(5.0821 0.0644711 -1.18644e-21)
(5.08405 0.0639877 4.59778e-22)
(5.08598 0.0634411 -4.15909e-22)
(5.08788 0.0628316 0)
(5.08976 0.0621591 -5.71647e-22)
(5.09162 0.0614242 1.29406e-22)
(5.09344 0.0606274 -5.89991e-23)
(5.09522 0.0597697 -2.34408e-22)
(5.09697 0.0588523 -1.76712e-22)
(5.09867 0.0578766 5.94359e-23)
(5.10033 0.0568439 0)
(5.10194 0.055756 8.30812e-23)
(5.10351 0.0546148 2.42622e-25)
(5.10502 0.0534224 -8.75142e-23)
(5.10647 0.052181 3.86411e-23)
(5.10787 0.050893 2.83472e-23)
(5.10921 0.0495608 3.76799e-22)
(5.11049 0.048187 3.42756e-22)
(5.11171 0.0467744 8.3501e-23)
(5.11286 0.0453261 7.96818e-22)
(5.11394 0.0438456 3.80104e-22)
(5.11495 0.0423406 -2.41253e-24)
(5.11589 0.0408002 1.7437e-22)
(5.11674 0.039161 -6.63065e-22)
(5.11753 0.0375891 6.7e-22)
(5.11825 0.0360573 -1.81728e-22)
(5.11891 0.0344614 1.81597e-22)
(5.11951 0.0328413 1.55544e-21)
(5.12004 0.0312105 1.56909e-21)
(5.12051 0.029574 -1.7582e-21)
(5.1209 0.0279354 -1.86911e-22)
(5.12122 0.0262978 -1.40386e-21)
(5.12147 0.0246643 1.87236e-22)
(5.12165 0.0230375 1.78363e-22)
(5.12176 0.0214204 -1.58814e-21)
(5.12181 0.0198153 0)
(5.1218 0.0182249 0)
(5.12172 0.0166514 -1.40861e-21)
(5.12158 0.0150974 1.49838e-21)
(5.12138 0.0135634 -2.89517e-21)
(5.12111 0.0120587 4.59971e-23)
(5.1208 0.0105553 3.04984e-21)
(5.04524 0.054143 0)
(5.04684 0.0545338 -1.47764e-22)
(5.04843 0.0548545 -2.95454e-22)
(5.05 0.0551282 1.08887e-23)
(5.0516 0.0553591 2.99469e-23)
(5.05321 0.0555465 -2.99658e-23)
(5.05483 0.0556893 -5.899e-22)
(5.05647 0.0557868 -3.23616e-22)
(5.0581 0.055838 -3.60784e-22)
(5.05974 0.0558421 -5.09648e-23)
(5.06139 0.0557984 5.09888e-23)
(5.06304 0.0557062 -8.75883e-22)
(5.06468 0.0555648 9.45179e-22)
(5.06632 0.0553738 5.48149e-22)
(5.06796 0.0551328 -5.57231e-22)
(5.06959 0.0548416 3.70571e-22)
(5.07121 0.0545001 -4.06186e-22)
(5.07282 0.0541081 4.32803e-22)
(5.07442 0.053666 -4.51033e-22)
(5.076 0.0531739 -3.5575e-22)
(5.07756 0.0526322 0)
(5.0791 0.0520414 4.85798e-22)
(5.08062 0.0514025 -5.37285e-22)
(5.08212 0.0507162 2.06814e-22)
(5.08359 0.0499834 4.48667e-22)
(5.08503 0.0492051 2.25982e-23)
(5.08643 0.0483827 -1.25404e-22)
(5.08781 0.0475172 1.52673e-23)
(5.08915 0.0466102 -7.51389e-23)
(5.09045 0.0456632 0)
(5.09171 0.0446778 0)
(5.09293 0.0436558 0)
(5.09411 0.0425989 -1.52371e-23)
(5.09525 0.0415091 -2.28725e-22)
(5.09634 0.0403884 -7.0042e-23)
(5.09738 0.0392389 -2.77018e-22)
(5.09838 0.0380627 1.4752e-22)
(5.09932 0.036862 -7.18754e-22)
(5.10022 0.0356393 -1.5176e-22)
(5.10107 0.0343978 -4.3495e-22)
(5.10186 0.0331409 5.09869e-22)
(5.10259 0.0318719 8.28848e-23)
(5.10328 0.0305882 4.47108e-22)
(5.10392 0.0293089 1.58439e-22)
(5.10451 0.0279642 1.23171e-21)
(5.10504 0.026611 -2.62887e-21)
(5.10552 0.0253669 -1.41099e-21)
(5.10595 0.0240706 1.41741e-21)
(5.10633 0.0227636 1.57281e-21)
(5.10666 0.0214573 -1.64498e-22)
(5.10693 0.0201557 1.24926e-21)
(5.10716 0.0188616 -4.10455e-25)
(5.10733 0.017577 1.43784e-21)
(5.10746 0.0163042 -1.65994e-22)
(5.10754 0.0150451 2.85184e-21)
(5.10758 0.0138017 -1.41031e-21)
(5.10757 0.0125751 2.81198e-21)
(5.10752 0.0113696 1.26618e-21)
(5.10743 0.0101769 0)
(5.04243 0.0459649 1.52648e-22)
(5.04387 0.0462771 1.47929e-22)
(5.04529 0.0465335 2.08052e-22)
(5.0467 0.0467531 -2.34953e-22)
(5.04811 0.0469392 0)
(5.04955 0.0470915 0)
(5.05099 0.0472096 2.78703e-23)
(5.05243 0.0472929 -3.86383e-22)
(5.05387 0.0473409 0)
(5.05532 0.0473531 -4.00187e-22)
(5.05676 0.047329 0)
(5.05821 0.0472683 4.02611e-22)
(5.05965 0.0471706 -4.98256e-22)
(5.06108 0.0470358 6.38659e-23)
(5.06251 0.0468636 5.5791e-22)
(5.06393 0.0466539 -2.94668e-22)
(5.06534 0.0464067 -2.95767e-22)
(5.06674 0.046122 -3.09063e-22)
(5.06812 0.0457999 -8.55804e-23)
(5.06949 0.0454405 3.52738e-22)
(5.07084 0.0450441 1.81599e-22)
(5.07217 0.044611 -4.7835e-22)
(5.07348 0.0441417 0)
(5.07476 0.0436366 -3.99585e-22)
(5.07602 0.0430964 -4.12375e-22)
(5.07726 0.0425216 2.20766e-22)
(5.07846 0.0419132 0)
(5.07964 0.0412719 -6.81199e-23)
(5.08079 0.0405988 1.29435e-22)
(5.0819 0.0398947 7.50595e-24)
(5.08298 0.039161 3.483e-23)
(5.08402 0.0383986 1.53358e-23)
(5.08503 0.0376089 -6.75431e-23)
(5.086 0.0367931 -6.38335e-23)
(5.08693 0.0359527 -1.82768e-22)
(5.08782 0.0350891 2.57312e-23)
(5.08868 0.0342037 -1.87631e-22)
(5.08948 0.033298 5.74629e-22)
(5.09025 0.0323737 3.8987e-22)
(5.09098 0.0314322 4.46244e-22)
(5.09166 0.0304753 1.41707e-22)
(5.09229 0.029505 -6.01335e-22)
(5.09289 0.028523 -7.53289e-22)
(5.09344 0.0275306 1.45996e-22)
(5.09394 0.0265292 -1.08656e-21)
(5.0944 0.0255202 1.80987e-21)
(5.09481 0.024505 1.10197e-21)
(5.09518 0.0234855 -2.55254e-21)
(5.0955 0.0224635 -7.21896e-25)
(5.09579 0.0214404 -8.50873e-22)
(5.09603 0.0204178 1.00621e-21)
(5.09622 0.0193972 1.16108e-21)
(5.09637 0.0183801 -1.12454e-22)
(5.09648 0.0173678 -1.16475e-21)
(5.09655 0.0163617 -1.27615e-21)
(5.09658 0.0153632 1.16529e-21)
(5.09657 0.0143729 0)
(5.09651 0.0133947 -1.26992e-21)
(5.09642 0.0124187 -1.16034e-21)
(5.03917 0.0388236 -1.52838e-22)
(5.0404 0.0390968 0)
(5.04163 0.0393259 -4.56827e-22)
(5.04285 0.0395244 4.75881e-22)
(5.04408 0.0396951 3.13945e-22)
(5.04531 0.039838 0)
(5.04655 0.0399524 3.17649e-22)
(5.04779 0.0400379 3.89806e-22)
(5.04903 0.0400941 -4.45146e-23)
(5.05027 0.0401206 5.51628e-22)
(5.0515 0.0401171 -2.1703e-22)
(5.05274 0.0400833 5.40739e-23)
(5.05397 0.040019 -6.0382e-23)
(5.05519 0.0399239 3.1027e-22)
(5.05641 0.0397979 6.66508e-23)
(5.05761 0.0396408 -2.70384e-22)
(5.05881 0.0394527 5.11516e-22)
(5.06 0.0392335 3.09506e-22)
(5.06117 0.0389835 0)
(5.06234 0.0387028 7.7788e-23)
(5.06348 0.0383917 8.18547e-23)
(5.06461 0.0380505 -8.7632e-23)
(5.06573 0.0376795 1.32837e-22)
(5.06682 0.0372794 -8.01525e-23)
(5.06789 0.0368505 2.45265e-22)
(5.06895 0.0363934 0)
(5.06998 0.035909 0)
(5.07099 0.0353979 1.04108e-22)
(5.07197 0.0348609 -2.95607e-23)
(5.07293 0.0342989 -6.77278e-24)
(5.07386 0.0337127 -2.42385e-23)
(5.07476 0.0331034 0)
(5.07564 0.0324719 -5.74905e-23)
(5.07648 0.0318193 5.74669e-23)
(5.0773 0.0311468 2.49467e-22)
(5.07808 0.0304554 8.0254e-23)
(5.07884 0.0297464 5.56903e-22)
(5.07956 0.0290209 -1.22588e-22)
(5.08025 0.0282802 -5.29382e-22)
(5.0809 0.0275256 -2.46452e-22)
(5.08152 0.0267584 0)
(5.08211 0.0259799 -1.30235e-22)
(5.08267 0.0251914 -5.09703e-22)
(5.08319 0.0243941 7.76859e-22)
(5.08367 0.0235893 -1.32535e-22)
(5.08412 0.0227785 -9.52752e-22)
(5.08454 0.0219636 -1.34541e-22)
(5.08492 0.0211454 1.1469e-21)
(5.08527 0.0203249 6.66873e-22)
(5.08558 0.0195033 4.88087e-22)
(5.08586 0.0186819 4.55384e-23)
(5.0861 0.017862 -1.30212e-21)
(5.08632 0.0170447 -9.17941e-23)
(5.0865 0.0162314 1.16788e-21)
(5.08664 0.0154231 1.07802e-21)
(5.08676 0.014621 -2.17753e-21)
(5.08684 0.0138259 1.00923e-21)
(5.08689 0.0130399 0)
(5.08693 0.0122595 1.16347e-21)
(5.03728 0.0322182 -2.0277e-22)
(5.03843 0.0324281 -6.78331e-24)
(5.03955 0.0326026 4.88233e-22)
(5.04066 0.0327548 -1.2056e-22)
(5.04178 0.0328866 -2.43771e-22)
(5.0429 0.0329978 -3.86839e-23)
(5.04402 0.0330884 1.70577e-22)
(5.04514 0.0331579 0)
(5.04625 0.0332047 -5.01994e-23)
(5.04736 0.0332278 5.1279e-23)
(5.04847 0.0332267 2.14073e-22)
(5.04958 0.0332027 -5.87728e-23)
(5.05067 0.0331575 -2.38152e-22)
(5.05176 0.0330916 5.76315e-23)
(5.05284 0.0330049 -2.56741e-22)
(5.05392 0.0328965 7.64117e-23)
(5.05498 0.0327656 -3.5532e-22)
(5.05603 0.0326118 1.43888e-22)
(5.05706 0.0324352 0)
(5.05809 0.032236 -2.40389e-22)
(5.05909 0.0320143 2.39449e-22)
(5.06009 0.0317706 0)
(5.06106 0.031505 0)
(5.06202 0.0312178 1.8129e-22)
(5.06296 0.0309095 -8.87128e-23)
(5.06388 0.0305803 9.09184e-23)
(5.06478 0.0302308 -4.65361e-23)
(5.06566 0.0298614 -2.67732e-24)
(5.06652 0.0294726 -1.93465e-23)
(5.06735 0.0290652 -6.36253e-24)
(5.06816 0.0286397 -2.6818e-23)
(5.06895 0.0281967 -5.14979e-23)
(5.06971 0.027737 5.2399e-23)
(5.07044 0.0272613 -1.06535e-22)
(5.07115 0.0267703 1.08205e-22)
(5.07183 0.0262647 2.34112e-22)
(5.07249 0.0257454 -2.37552e-22)
(5.07311 0.0252131 0)
(5.07371 0.0246686 -2.28389e-22)
(5.07428 0.0241129 2.46876e-22)
(5.07481 0.0235467 0)
(5.07532 0.0229711 -2.35867e-22)
(5.0758 0.0223868 3.85174e-22)
(5.07625 0.0217948 9.04931e-23)
(5.07667 0.021196 0)
(5.07706 0.0205913 1.61106e-22)
(5.07742 0.0199817 -1.26831e-22)
(5.07774 0.0193681 0)
(5.07804 0.0187513 -5.30991e-22)
(5.07831 0.0181322 5.33379e-22)
(5.07854 0.0175116 -1.07084e-21)
(5.07875 0.0168902 0)
(5.07893 0.0162688 -1.58067e-21)
(5.07907 0.0156481 -1.30712e-22)
(5.07919 0.0150286 -9.49813e-22)
(5.07928 0.0144111 5.74968e-22)
(5.07934 0.013796 -2.09411e-21)
(5.07936 0.0131845 -3.26734e-23)
(5.07937 0.0125751 1.04481e-21)
(5.03461 0.0268219 2.16814e-22)
(5.0356 0.0270651 -1.36356e-22)
(5.03661 0.0272822 -2.54098e-22)
(5.03762 0.0274789 -1.37922e-22)
(5.03863 0.0276574 0)
(5.03964 0.0278177 0)
(5.04064 0.0279593 -1.27175e-22)
(5.04165 0.0280819 2.52238e-24)
(5.04265 0.0281853 -9.48239e-23)
(5.04365 0.0282692 -2.0572e-22)
(5.04464 0.0283334 1.04855e-22)
(5.04562 0.0283777 -5.37006e-23)
(5.0466 0.028402 1.76807e-22)
(5.04757 0.0284062 -1.87544e-22)
(5.04853 0.0283902 3.84915e-22)
(5.04949 0.028354 2.67526e-22)
(5.05043 0.0282977 0)
(5.05136 0.0282211 -2.85718e-22)
(5.05229 0.0281246 -7.34867e-23)
(5.0532 0.0280081 7.35028e-23)
(5.05409 0.0278719 -2.37071e-22)
(5.05498 0.0277159 7.73207e-23)
(5.05585 0.0275405 8.03336e-23)
(5.0567 0.0273458 8.36776e-23)
(5.05754 0.0271323 8.88101e-23)
(5.05836 0.0269003 -1.35449e-22)
(5.05916 0.0266503 9.10116e-23)
(5.05995 0.0263828 -7.04938e-23)
(5.06071 0.0260982 1.16512e-23)
(5.06146 0.025797 6.03728e-24)
(5.06219 0.0254797 6.04947e-24)
(5.0629 0.0251469 5.15699e-23)
(5.06358 0.024799 -5.24743e-23)
(5.06425 0.0244367 1.06692e-22)
(5.06489 0.0240605 -1.60881e-22)
(5.06551 0.0236712 -5.1907e-23)
(5.06611 0.0232695 -2.1966e-24)
(5.06669 0.0228559 1.07919e-22)
(5.06724 0.0224314 3.39415e-22)
(5.06777 0.0219965 -3.29622e-22)
(5.06827 0.0215521 0)
(5.06875 0.0210988 2.36278e-22)
(5.0692 0.0206376 0)
(5.06963 0.0201691 -4.81097e-22)
(5.07004 0.0196943 0)
(5.07042 0.0192138 2.57802e-22)
(5.07078 0.0187287 0)
(5.07111 0.0182398 0)
(5.07142 0.0177478 -3.49439e-22)
(5.0717 0.0172538 -1.20001e-22)
(5.07195 0.0167576 0)
(5.07218 0.0162646 -1.21599e-22)
(5.07239 0.0157551 6.26222e-22)
(5.07257 0.0152681 0)
(5.07272 0.0147763 0)
(5.07285 0.0142852 5.0722e-22)
(5.07296 0.0137965 1.01495e-21)
(5.07304 0.0133118 4.49768e-22)
(5.0731 0.0128289 -9.83602e-22)
(5.03449 0.0205931 0)
(5.03546 0.0207601 1.29419e-22)
(5.03638 0.0209116 1.4768e-22)
(5.03729 0.0210547 0)
(5.0382 0.0211888 0)
(5.03912 0.0213129 -4.58696e-23)
(5.04003 0.0214266 -2.31539e-24)
(5.04094 0.0215297 4.82393e-23)
(5.04184 0.0216227 1.01696e-22)
(5.04273 0.0217061 -1.06229e-22)
(5.04362 0.0217796 -1.10726e-22)
(5.0445 0.0218413 0)
(5.04537 0.0218891 0)
(5.04624 0.021922 -1.23972e-22)
(5.04709 0.0219399 -2.56255e-22)
(5.04794 0.0219434 1.32558e-22)
(5.04877 0.0219333 0)
(5.0496 0.0219099 1.41745e-22)
(5.05041 0.0218734 1.47384e-22)
(5.05121 0.0218233 -7.48925e-23)
(5.052 0.0217597 0)
(5.05277 0.0216831 -7.95884e-23)
(5.05353 0.0215932 1.21723e-22)
(5.05428 0.021489 -1.25126e-22)
(5.05501 0.02137 4.19702e-23)
(5.05573 0.0212365 0)
(5.05643 0.021089 -2.2534e-23)
(5.05712 0.0209279 6.76699e-23)
(5.05778 0.0207546 -2.30038e-23)
(5.05844 0.0205709 0)
(5.05907 0.0203775 -2.38404e-23)
(5.05968 0.0201745 6.87657e-25)
(5.06028 0.0199618 -4.8795e-23)
(5.06085 0.0197392 0)
(5.06141 0.0195063 1.01103e-22)
(5.06194 0.0192634 5.32788e-23)
(5.06246 0.0190109 -2.08148e-22)
(5.06295 0.0187492 0)
(5.06343 0.0184788 0)
(5.06388 0.0182 3.27717e-22)
(5.06431 0.0179132 -1.05647e-22)
(5.06472 0.0176189 -2.19818e-22)
(5.06511 0.0173176 1.10359e-22)
(5.06548 0.0170093 0)
(5.06583 0.0166945 0)
(5.06615 0.0163731 2.30962e-22)
(5.06645 0.0160464 -2.23408e-22)
(5.06674 0.0157272 0)
(5.067 0.0154059 4.70225e-22)
(5.06724 0.0150842 2.26868e-22)
(5.06745 0.0147584 -2.27796e-22)
(5.06765 0.0144379 1.1678e-22)
(5.06782 0.0141092 3.97784e-25)
(5.06797 0.0137977 -1.16998e-22)
(5.0681 0.0134709 0)
(5.06821 0.0131344 0)
(5.06829 0.0127959 0)
(5.06835 0.0124569 -4.81313e-22)
(5.06839 0.0121193 0)
(5.03223 0.0173045 0)
(5.03313 0.0175552 0)
(5.03407 0.0177909 -1.6654e-22)
(5.035 0.0180132 -2.10461e-23)
(5.03591 0.0182235 3.97859e-23)
(5.0368 0.0184217 0)
(5.03769 0.0186074 4.66317e-23)
(5.03857 0.0187802 2.23415e-24)
(5.03945 0.0189398 -1.50705e-22)
(5.04031 0.0190862 1.06324e-22)
(5.04116 0.0192192 1.66357e-22)
(5.04201 0.0193385 -5.55553e-23)
(5.04285 0.0194438 -5.98478e-23)
(5.04368 0.0195356 1.83928e-22)
(5.04449 0.0196137 6.43107e-23)
(5.0453 0.019678 -6.85554e-23)
(5.0461 0.0197284 -3.45145e-23)
(5.04688 0.019765 0)
(5.04766 0.0197878 -1.08914e-22)
(5.04842 0.0197969 0)
(5.04917 0.0197925 -3.81812e-23)
(5.04991 0.0197747 -1.16933e-22)
(5.05064 0.0197436 3.74395e-23)