/*--------------------------------*- C++ -*----------------------------------*\
| =========                 |                                                 |
| \\      /  F ield         | OpenFOAM: The Open Source CFD Toolbox           |
|  \\    /   O peration     | Version:  2412                                  |
|   \\  /    A nd           | Website:  www.openfoam.com                      |
|    \\/     M anipulation  |                                                 |
\*---------------------------------------------------------------------------*/
FoamFile
{
    version     2.0;
    format      ascii;
    arch        "LSB;label=32;scalar=64";
    class       volScalarField;
    location    "1500";
    object      yPlus;
}
// * * * * * * * * * * * * * * * * * * * * * * * * * * * * * * * * * * * * * //

dimensions      [0 0 0 0 0 0 0];

internalField   uniform 0;

boundaryField
{
    sides
    {
        type            empty;
    }
    inlet
    {
        type            calculated;
        value           uniform 0;
    }
    topBot
    {
        type            calculated;
        value           uniform 0;
    }
    outlet
    {
        type            calculated;
        value           uniform 0;
    }
    wall
    {
        type            calculated;
        value           nonuniform List<scalar> 
236
(
453.452
443.633
433.379
422.695
411.583
400.049
388.1
375.76
363.039
349.947
336.493
322.684
308.527
294.029
279.195
264.031
248.541
232.728
216.594
200.139
183.348
166.201
148.621
130.528
112.059
93.2799
73.2857
52.9958
36.092
27.7787
36.0883
52.9908
73.2792
93.2732
112.052
130.522
148.614
166.195
183.342
200.134
216.589
232.722
248.535
264.026
279.19
294.024
308.522
322.679
336.489
349.943
363.035
375.756
388.096
400.045
411.58
422.691
433.376
443.63
453.449
66.4828
69.9276
73.4361
76.93
80.3295
83.5528
86.5202
89.1585
91.4045
93.2009
94.4938
95.2359
95.3916
94.9397
93.8836
92.188
89.8509
86.8733
83.275
79.0568
74.2368
68.834
62.8682
56.3629
49.3814
42.0106
34.2128
26.1598
19.3547
16.1852
19.4025
26.2233
34.2836
42.0762
49.4456
56.4258
62.9287
68.8918
74.2921
79.1096
83.3252
86.9209
89.8958
92.2301
93.9227
94.9758
95.4248
95.2659
94.5207
93.2247
91.4251
89.176
86.5347
83.5644
80.3384
76.9363
73.44
69.9292
66.4825
462.836
471.803
480.358
488.51
496.211
503.435
510.167
516.393
522.095
527.249
531.821
535.783
539.117
541.791
543.801
545.159
545.848
545.815
545.024
543.443
541.024
537.696
533.401
528.067
521.56
513.708
504.347
493.286
480.252
464.9
446.685
425.235
399.711
369.3
333.206
289.96
240.879
186.659
127.563
74.5058
12.3431
54.4507
67.7324
73.3687
65.9276
55.6375
50.0587
48.5678
48.3812
47.5874
47.4638
48.2128
49.3018
50.7669
52.6014
54.7676
57.2657
60.0845
63.1781
462.839
471.806
480.361
488.513
496.214
503.438
510.17
516.396
522.098
527.252
531.824
535.786
539.12
541.793
543.804
545.162
545.851
545.818
545.027
543.446
541.027
537.699
533.404
528.07
521.563
513.711
504.35
493.289
480.254
464.902
446.686
425.235
399.71
369.299
333.204
289.956
240.872
186.649
127.552
74.4957
12.3417
54.4563
67.7386
73.3735
65.928
55.6363
50.0574
48.5659
48.3775
47.5824
47.458
48.2063
49.2948
50.7598
52.5946
54.7616
57.2607
60.0807
63.1759
)
;
    }
}


// ************************************************************************* //
