/*--------------------------------*- C++ -*----------------------------------*\
| =========                 |                                                 |
| \\      /  F ield         | OpenFOAM: The Open Source CFD Toolbox           |
|  \\    /   O peration     | Version:  2412                                  |
|   \\  /    A nd           | Website:  www.openfoam.com                      |
|    \\/     M anipulation  |                                                 |
\*---------------------------------------------------------------------------*/
FoamFile
{
    version     2.0;
    format      ascii;
    arch        "LSB;label=32;scalar=64";
    class       volScalarField;
    location    "1500";
    object      nut;
}
// * * * * * * * * * * * * * * * * * * * * * * * * * * * * * * * * * * * * * //

dimensions      [0 2 -1 0 0 0 0];

internalField   nonuniform List<scalar> 
20428
(
1.04417e-09
1.04433e-09
1.04449e-09
1.04464e-09
1.04479e-09
1.04494e-09
1.04508e-09
1.0452e-09
1.04537e-09
1.04544e-09
1.0441e-09
1.04411e-09
1.04411e-09
1.04411e-09
1.04411e-09
1.04411e-09
1.04412e-09
1.04413e-09
1.04417e-09
1.04418e-09
1.04415e-09
1.04426e-09
1.04436e-09
1.04447e-09
1.04459e-09
1.04471e-09
1.04483e-09
1.04496e-09
1.04508e-09
1.04523e-09
1.04419e-09
1.04437e-09
1.04456e-09
1.04476e-09
1.04496e-09
1.04516e-09
1.04537e-09
1.04558e-09
1.04579e-09
1.04602e-09
1.04422e-09
1.04446e-09
1.0447e-09
1.04495e-09
1.0452e-09
1.04546e-09
1.04572e-09
1.046e-09
1.04626e-09
1.04655e-09
1.04423e-09
1.04451e-09
1.04478e-09
1.04507e-09
1.04535e-09
1.04564e-09
1.04594e-09
1.04624e-09
1.04654e-09
1.04685e-09
1.04424e-09
1.04453e-09
1.04482e-09
1.04512e-09
1.04542e-09
1.04572e-09
1.04603e-09
1.04635e-09
1.04665e-09
1.04699e-09
1.04424e-09
1.04453e-09
1.04482e-09
1.04512e-09
1.04542e-09
1.04572e-09
1.04603e-09
1.04635e-09
1.04666e-09
1.04698e-09
1.04423e-09
1.04451e-09
1.0448e-09
1.04508e-09
1.04537e-09
1.04566e-09
1.04596e-09
1.04626e-09
1.04656e-09
1.04688e-09
1.04423e-09
1.04449e-09
1.04475e-09
1.04502e-09
1.04529e-09
1.04556e-09
1.04583e-09
1.04612e-09
1.0464e-09
1.04669e-09
1.04421e-09
1.04445e-09
1.04469e-09
1.04493e-09
1.04517e-09
1.04542e-09
1.04567e-09
1.04592e-09
1.04618e-09
1.04643e-09
1.0442e-09
1.0444e-09
1.04461e-09
1.04482e-09
1.04503e-09
1.04525e-09
1.04547e-09
1.04569e-09
1.04591e-09
1.04614e-09
1.04418e-09
1.04435e-09
1.04452e-09
1.0447e-09
1.04488e-09
1.04506e-09
1.04524e-09
1.04542e-09
1.04561e-09
1.04579e-09
1.04416e-09
1.04429e-09
1.04443e-09
1.04456e-09
1.0447e-09
1.04484e-09
1.04498e-09
1.04512e-09
1.04526e-09
1.04541e-09
1.04414e-09
1.04422e-09
1.04431e-09
1.0444e-09
1.04449e-09
1.04459e-09
1.04468e-09
1.04477e-09
1.04487e-09
1.04496e-09
1.04411e-09
1.04414e-09
1.04417e-09
1.04421e-09
1.04424e-09
1.04427e-09
1.04429e-09
1.04431e-09
1.04432e-09
1.04434e-09
1.04544e-09
1.04542e-09
1.04537e-09
1.04531e-09
1.04525e-09
1.04519e-09
1.04514e-09
1.0451e-09
1.04508e-09
1.04507e-09
1.04507e-09
1.04509e-09
1.04513e-09
1.04519e-09
1.04526e-09
1.04535e-09
1.04546e-09
1.04558e-09
1.04573e-09
1.04589e-09
1.04607e-09
1.04627e-09
1.04648e-09
1.04671e-09
1.04696e-09
1.04723e-09
1.04752e-09
1.04783e-09
1.04816e-09
1.0485e-09
1.04887e-09
1.04925e-09
1.04965e-09
1.05007e-09
1.05051e-09
1.05096e-09
1.05144e-09
1.05194e-09
1.05246e-09
1.053e-09
1.05356e-09
1.05415e-09
1.05476e-09
1.0554e-09
1.05606e-09
1.05675e-09
1.05747e-09
1.05822e-09
1.05899e-09
1.0598e-09
1.06064e-09
1.06152e-09
1.06243e-09
1.06337e-09
1.06435e-09
1.06537e-09
1.06643e-09
1.06753e-09
1.06867e-09
1.06986e-09
1.07109e-09
1.07237e-09
1.0737e-09
1.07507e-09
1.07649e-09
1.07795e-09
1.07946e-09
1.08102e-09
1.08262e-09
1.08426e-09
1.08595e-09
1.08768e-09
1.08945e-09
1.09127e-09
1.09313e-09
1.09504e-09
1.09702e-09
1.09898e-09
1.10125e-09
1.04425e-09
1.0443e-09
1.04437e-09
1.04446e-09
1.04456e-09
1.04468e-09
1.0448e-09
1.04493e-09
1.04507e-09
1.04523e-09
1.04539e-09
1.04556e-09
1.04575e-09
1.04595e-09
1.04617e-09
1.0464e-09
1.04665e-09
1.04692e-09
1.04721e-09
1.04752e-09
1.04784e-09
1.04818e-09
1.04854e-09
1.04888e-09
1.04922e-09
1.04955e-09
1.04987e-09
1.0502e-09
1.05054e-09
1.05089e-09
1.05125e-09
1.05161e-09
1.05198e-09
1.05237e-09
1.05276e-09
1.05316e-09
1.05357e-09
1.05399e-09
1.05442e-09
1.05486e-09
1.0553e-09
1.05576e-09
1.05622e-09
1.0567e-09
1.05718e-09
1.05767e-09
1.05817e-09
1.05868e-09
1.0592e-09
1.05973e-09
1.06026e-09
1.06081e-09
1.06136e-09
1.06193e-09
1.0625e-09
1.06309e-09
1.06368e-09
1.06429e-09
1.06491e-09
1.06554e-09
1.06619e-09
1.06685e-09
1.06753e-09
1.06821e-09
1.06892e-09
1.06963e-09
1.07036e-09
1.0711e-09
1.07186e-09
1.07263e-09
1.07342e-09
1.07422e-09
1.07504e-09
1.07589e-09
1.07675e-09
1.07763e-09
1.07855e-09
1.07943e-09
1.08059e-09
1.0454e-09
1.04547e-09
1.04557e-09
1.04568e-09
1.04579e-09
1.04591e-09
1.04605e-09
1.04619e-09
1.04633e-09
1.04649e-09
1.04665e-09
1.04682e-09
1.047e-09
1.04718e-09
1.04738e-09
1.04758e-09
1.04779e-09
1.04801e-09
1.04823e-09
1.04846e-09
1.04871e-09
1.04896e-09
1.04922e-09
1.04949e-09
1.04977e-09
1.05005e-09
1.05035e-09
1.05065e-09
1.05095e-09
1.05127e-09
1.0516e-09
1.05193e-09
1.05228e-09
1.05263e-09
1.053e-09
1.05337e-09
1.05375e-09
1.05414e-09
1.05454e-09
1.05495e-09
1.05536e-09
1.05579e-09
1.05623e-09
1.05667e-09
1.05712e-09
1.05758e-09
1.05805e-09
1.05853e-09
1.05901e-09
1.0595e-09
1.06e-09
1.06051e-09
1.06102e-09
1.06154e-09
1.06207e-09
1.0626e-09
1.06314e-09
1.06368e-09
1.06423e-09
1.06478e-09
1.06534e-09
1.0659e-09
1.06647e-09
1.06704e-09
1.06762e-09
1.0682e-09
1.06878e-09
1.06937e-09
1.06996e-09
1.07055e-09
1.07115e-09
1.07175e-09
1.07236e-09
1.07297e-09
1.07358e-09
1.0742e-09
1.07482e-09
1.07543e-09
1.07612e-09
1.04622e-09
1.0463e-09
1.0464e-09
1.04651e-09
1.04662e-09
1.04674e-09
1.04687e-09
1.04701e-09
1.04716e-09
1.04732e-09
1.04749e-09
1.04767e-09
1.04787e-09
1.04808e-09
1.0483e-09
1.04853e-09
1.04877e-09
1.04902e-09
1.04927e-09
1.04952e-09
1.04977e-09
1.05002e-09
1.05027e-09
1.05053e-09
1.05079e-09
1.05106e-09
1.05134e-09
1.05163e-09
1.05192e-09
1.05222e-09
1.05253e-09
1.05284e-09
1.05317e-09
1.05349e-09
1.05383e-09
1.05417e-09
1.05452e-09
1.05487e-09
1.05523e-09
1.0556e-09
1.05598e-09
1.05636e-09
1.05674e-09
1.05713e-09
1.05753e-09
1.05793e-09
1.05834e-09
1.05876e-09
1.05918e-09
1.0596e-09
1.06003e-09
1.06047e-09
1.06091e-09
1.06136e-09
1.06181e-09
1.06227e-09
1.06273e-09
1.0632e-09
1.06367e-09
1.06415e-09
1.06463e-09
1.06512e-09
1.06561e-09
1.06611e-09
1.06661e-09
1.06712e-09
1.06763e-09
1.06815e-09
1.06867e-09
1.0692e-09
1.06973e-09
1.07026e-09
1.0708e-09
1.07134e-09
1.07188e-09
1.07243e-09
1.07298e-09
1.07352e-09
1.07413e-09
1.04679e-09
1.04688e-09
1.04697e-09
1.04708e-09
1.04719e-09
1.0473e-09
1.04743e-09
1.04755e-09
1.04769e-09
1.04783e-09
1.04797e-09
1.04812e-09
1.04828e-09
1.04845e-09
1.04862e-09
1.04879e-09
1.04898e-09
1.04917e-09
1.04937e-09
1.04957e-09
1.04978e-09
1.04999e-09
1.05021e-09
1.05044e-09
1.05067e-09
1.05091e-09
1.05115e-09
1.0514e-09
1.05166e-09
1.05192e-09
1.05219e-09
1.05246e-09
1.05274e-09
1.05303e-09
1.05332e-09
1.05362e-09
1.05393e-09
1.05423e-09
1.05454e-09
1.05486e-09
1.05519e-09
1.05553e-09
1.05587e-09
1.05622e-09
1.05658e-09
1.05694e-09
1.0573e-09
1.05768e-09
1.05805e-09
1.05843e-09
1.05882e-09
1.05922e-09
1.05962e-09
1.06002e-09
1.06043e-09
1.06085e-09
1.06127e-09
1.06169e-09
1.06213e-09
1.06256e-09
1.063e-09
1.06345e-09
1.06391e-09
1.06436e-09
1.06483e-09
1.06529e-09
1.06577e-09
1.06624e-09
1.06673e-09
1.06721e-09
1.0677e-09
1.0682e-09
1.0687e-09
1.06921e-09
1.06971e-09
1.07023e-09
1.07075e-09
1.07126e-09
1.07183e-09
1.0471e-09
1.04718e-09
1.04727e-09
1.04738e-09
1.04749e-09
1.04761e-09
1.04774e-09
1.04787e-09
1.04802e-09
1.04817e-09
1.04833e-09
1.04849e-09
1.04865e-09
1.04882e-09
1.04899e-09
1.04915e-09
1.04932e-09
1.04949e-09
1.04967e-09
1.04986e-09
1.05004e-09
1.05023e-09
1.05043e-09
1.05063e-09
1.05084e-09
1.05105e-09
1.05126e-09
1.05148e-09
1.05171e-09
1.05194e-09
1.05217e-09
1.05241e-09
1.05265e-09
1.0529e-09
1.05315e-09
1.05341e-09
1.05367e-09
1.05394e-09
1.05421e-09
1.05448e-09
1.05477e-09
1.05505e-09
1.05535e-09
1.05565e-09
1.05595e-09
1.05626e-09
1.05657e-09
1.05689e-09
1.05722e-09
1.05755e-09
1.05788e-09
1.05822e-09
1.05857e-09
1.05892e-09
1.05928e-09
1.05964e-09
1.06e-09
1.06038e-09
1.06075e-09
1.06113e-09
1.06152e-09
1.06191e-09
1.06231e-09
1.06271e-09
1.06311e-09
1.06352e-09
1.06393e-09
1.06435e-09
1.06477e-09
1.0652e-09
1.06563e-09
1.06607e-09
1.0665e-09
1.06695e-09
1.06739e-09
1.06784e-09
1.0683e-09
1.06874e-09
1.06925e-09
1.04724e-09
1.04732e-09
1.0474e-09
1.0475e-09
1.04759e-09
1.0477e-09
1.0478e-09
1.04792e-09
1.04803e-09
1.04815e-09
1.04828e-09
1.04841e-09
1.04854e-09
1.04868e-09
1.04882e-09
1.04897e-09
1.04912e-09
1.04927e-09
1.04943e-09
1.04959e-09
1.04975e-09
1.04992e-09
1.05009e-09
1.05027e-09
1.05045e-09
1.05063e-09
1.05082e-09
1.05102e-09
1.05121e-09
1.05141e-09
1.05162e-09
1.05183e-09
1.05205e-09
1.05227e-09
1.05249e-09
1.05272e-09
1.05295e-09
1.05318e-09
1.05342e-09
1.05366e-09
1.05391e-09
1.05416e-09
1.05443e-09
1.0547e-09
1.05497e-09
1.05525e-09
1.05553e-09
1.05582e-09
1.05611e-09
1.05641e-09
1.05671e-09
1.05702e-09
1.05732e-09
1.05764e-09
1.05796e-09
1.05828e-09
1.0586e-09
1.05894e-09
1.05927e-09
1.05961e-09
1.05995e-09
1.0603e-09
1.06065e-09
1.061e-09
1.06136e-09
1.06172e-09
1.06208e-09
1.06245e-09
1.06282e-09
1.06319e-09
1.06357e-09
1.06395e-09
1.06434e-09
1.06472e-09
1.06511e-09
1.06551e-09
1.0659e-09
1.06629e-09
1.06673e-09
1.04722e-09
1.0473e-09
1.04739e-09
1.04748e-09
1.04758e-09
1.04768e-09
1.04778e-09
1.04788e-09
1.04798e-09
1.04809e-09
1.0482e-09
1.04831e-09
1.04843e-09
1.04855e-09
1.04867e-09
1.04879e-09
1.04892e-09
1.04906e-09
1.04919e-09
1.04933e-09
1.04948e-09
1.04963e-09
1.04978e-09
1.04993e-09
1.05009e-09
1.05025e-09
1.05042e-09
1.05059e-09
1.05077e-09
1.05094e-09
1.05113e-09
1.05131e-09
1.0515e-09
1.05169e-09
1.05189e-09
1.05209e-09
1.0523e-09
1.0525e-09
1.05272e-09
1.05293e-09
1.05315e-09
1.05337e-09
1.0536e-09
1.05383e-09
1.05407e-09
1.05431e-09
1.05455e-09
1.0548e-09
1.05505e-09
1.05531e-09
1.05556e-09
1.05583e-09
1.05609e-09
1.05636e-09
1.05664e-09
1.05691e-09
1.0572e-09
1.05748e-09
1.05777e-09
1.05806e-09
1.05835e-09
1.05865e-09
1.05895e-09
1.05925e-09
1.05956e-09
1.05987e-09
1.06018e-09
1.0605e-09
1.06081e-09
1.06114e-09
1.06146e-09
1.06179e-09
1.06212e-09
1.06245e-09
1.06278e-09
1.06312e-09
1.06346e-09
1.06379e-09
1.06417e-09
1.04709e-09
1.04716e-09
1.04723e-09
1.04731e-09
1.04739e-09
1.04748e-09
1.04756e-09
1.04765e-09
1.04775e-09
1.04784e-09
1.04794e-09
1.04804e-09
1.04814e-09
1.04825e-09
1.04836e-09
1.04847e-09
1.04858e-09
1.0487e-09
1.04882e-09
1.04895e-09
1.04907e-09
1.0492e-09
1.04934e-09
1.04947e-09
1.04961e-09
1.04975e-09
1.0499e-09
1.05005e-09
1.0502e-09
1.05035e-09
1.05051e-09
1.05067e-09
1.05084e-09
1.051e-09
1.05117e-09
1.05135e-09
1.05152e-09
1.0517e-09
1.05188e-09
1.05205e-09
1.05223e-09
1.05241e-09
1.05259e-09
1.05279e-09
1.05298e-09
1.05319e-09
1.0534e-09
1.05361e-09
1.05383e-09
1.05405e-09
1.05427e-09
1.0545e-09
1.05473e-09
1.05496e-09
1.0552e-09
1.05544e-09
1.05568e-09
1.05593e-09
1.05618e-09
1.05643e-09
1.05668e-09
1.05694e-09
1.0572e-09
1.05746e-09
1.05772e-09
1.05799e-09
1.05826e-09
1.05853e-09
1.05881e-09
1.05908e-09
1.05936e-09
1.05964e-09
1.05993e-09
1.06021e-09
1.0605e-09
1.06079e-09
1.06108e-09
1.06137e-09
1.06169e-09
1.04689e-09
1.04695e-09
1.04701e-09
1.04708e-09
1.04715e-09
1.04723e-09
1.0473e-09
1.04738e-09
1.04746e-09
1.04754e-09
1.04763e-09
1.04772e-09
1.04781e-09
1.0479e-09
1.048e-09
1.04809e-09
1.04819e-09
1.04829e-09
1.0484e-09
1.04851e-09
1.04862e-09
1.04873e-09
1.04884e-09
1.04896e-09
1.04908e-09
1.0492e-09
1.04933e-09
1.04945e-09
1.04958e-09
1.04971e-09
1.04985e-09
1.04999e-09
1.05013e-09
1.05027e-09
1.05042e-09
1.05056e-09
1.05072e-09
1.05087e-09
1.05102e-09
1.05118e-09
1.05134e-09
1.05151e-09
1.05167e-09
1.05184e-09
1.05201e-09
1.05218e-09
1.05236e-09
1.05253e-09
1.05271e-09
1.05289e-09
1.05308e-09
1.05327e-09
1.05346e-09
1.05365e-09
1.05385e-09
1.05405e-09
1.05426e-09
1.05446e-09
1.05467e-09
1.05488e-09
1.0551e-09
1.05531e-09
1.05553e-09
1.05575e-09
1.05598e-09
1.0562e-09
1.05643e-09
1.05666e-09
1.05689e-09
1.05713e-09
1.05736e-09
1.0576e-09
1.05784e-09
1.05808e-09
1.05832e-09
1.05857e-09
1.05881e-09
1.05906e-09
1.05933e-09
1.04661e-09
1.04666e-09
1.04672e-09
1.04678e-09
1.04684e-09
1.0469e-09
1.04697e-09
1.04704e-09
1.04711e-09
1.04718e-09
1.04725e-09
1.04733e-09
1.0474e-09
1.04748e-09
1.04756e-09
1.04765e-09
1.04773e-09
1.04782e-09
1.04791e-09
1.048e-09
1.04809e-09
1.04818e-09
1.04828e-09
1.04838e-09
1.04848e-09
1.04858e-09
1.04869e-09
1.04879e-09
1.0489e-09
1.04902e-09
1.04913e-09
1.04924e-09
1.04936e-09
1.04948e-09
1.0496e-09
1.04973e-09
1.04985e-09
1.04998e-09
1.05012e-09
1.05025e-09
1.05039e-09
1.05052e-09
1.05066e-09
1.0508e-09
1.05093e-09
1.05107e-09
1.0512e-09
1.05133e-09
1.05146e-09
1.05159e-09
1.05173e-09
1.05187e-09
1.05202e-09
1.05217e-09
1.05233e-09
1.0525e-09
1.05267e-09
1.05284e-09
1.05302e-09
1.05319e-09
1.05337e-09
1.05355e-09
1.05374e-09
1.05392e-09
1.05411e-09
1.0543e-09
1.05449e-09
1.05469e-09
1.05488e-09
1.05508e-09
1.05528e-09
1.05548e-09
1.05568e-09
1.05588e-09
1.05609e-09
1.0563e-09
1.0565e-09
1.05671e-09
1.05694e-09
1.04629e-09
1.04633e-09
1.04638e-09
1.04643e-09
1.04648e-09
1.04654e-09
1.04659e-09
1.04665e-09
1.04671e-09
1.04677e-09
1.04683e-09
1.04689e-09
1.04696e-09
1.04702e-09
1.04709e-09
1.04716e-09
1.04723e-09
1.0473e-09
1.04738e-09
1.04745e-09
1.04753e-09
1.04761e-09
1.04769e-09
1.04777e-09
1.04785e-09
1.04794e-09
1.04802e-09
1.04811e-09
1.0482e-09
1.0483e-09
1.04839e-09
1.04848e-09
1.04858e-09
1.04868e-09
1.04878e-09
1.04888e-09
1.04899e-09
1.04909e-09
1.0492e-09
1.04931e-09
1.04942e-09
1.04954e-09
1.04965e-09
1.04977e-09
1.04989e-09
1.05002e-09
1.05014e-09
1.05026e-09
1.05038e-09
1.05051e-09
1.05064e-09
1.05077e-09
1.0509e-09
1.05103e-09
1.05116e-09
1.0513e-09
1.05143e-09
1.05156e-09
1.0517e-09
1.05183e-09
1.05197e-09
1.05211e-09
1.05225e-09
1.0524e-09
1.05255e-09
1.05269e-09
1.05285e-09
1.053e-09
1.05315e-09
1.05331e-09
1.05347e-09
1.05363e-09
1.05379e-09
1.05395e-09
1.05411e-09
1.05428e-09
1.05445e-09
1.05461e-09
1.05479e-09
1.04591e-09
1.04595e-09
1.04599e-09
1.04603e-09
1.04607e-09
1.04611e-09
1.04616e-09
1.04621e-09
1.04625e-09
1.0463e-09
1.04635e-09
1.0464e-09
1.04645e-09
1.04651e-09
1.04656e-09
1.04662e-09
1.04668e-09
1.04673e-09
1.04679e-09
1.04685e-09
1.04692e-09
1.04698e-09
1.04704e-09
1.04711e-09
1.04718e-09
1.04725e-09
1.04731e-09
1.04739e-09
1.04746e-09
1.04753e-09
1.04761e-09
1.04768e-09
1.04776e-09
1.04784e-09
1.04792e-09
1.048e-09
1.04809e-09
1.04817e-09
1.04826e-09
1.04834e-09
1.04843e-09
1.04852e-09
1.04861e-09
1.04871e-09
1.0488e-09
1.0489e-09
1.049e-09
1.0491e-09
1.0492e-09
1.0493e-09
1.0494e-09
1.04951e-09
1.04961e-09
1.04972e-09
1.04982e-09
1.04993e-09
1.05003e-09
1.05013e-09
1.05023e-09
1.05032e-09
1.05041e-09
1.0505e-09
1.05059e-09
1.05068e-09
1.05078e-09
1.05088e-09
1.05099e-09
1.0511e-09
1.05122e-09
1.05133e-09
1.05145e-09
1.05157e-09
1.05169e-09
1.05181e-09
1.05193e-09
1.05206e-09
1.05219e-09
1.05231e-09
1.05245e-09
1.04551e-09
1.04554e-09
1.04557e-09
1.0456e-09
1.04563e-09
1.04566e-09
1.0457e-09
1.04573e-09
1.04577e-09
1.04581e-09
1.04585e-09
1.04588e-09
1.04592e-09
1.04596e-09
1.04601e-09
1.04605e-09
1.04609e-09
1.04614e-09
1.04618e-09
1.04623e-09
1.04628e-09
1.04633e-09
1.04638e-09
1.04643e-09
1.04648e-09
1.04653e-09
1.04658e-09
1.04663e-09
1.04669e-09
1.04674e-09
1.0468e-09
1.04686e-09
1.04691e-09
1.04697e-09
1.04703e-09
1.04709e-09
1.04715e-09
1.04721e-09
1.04728e-09
1.04734e-09
1.04741e-09
1.04747e-09
1.04754e-09
1.04761e-09
1.04768e-09
1.04775e-09
1.04782e-09
1.0479e-09
1.04797e-09
1.04804e-09
1.04812e-09
1.0482e-09
1.04828e-09
1.04836e-09
1.04844e-09
1.04853e-09
1.04861e-09
1.0487e-09
1.04879e-09
1.04889e-09
1.04898e-09
1.04907e-09
1.04916e-09
1.04926e-09
1.04935e-09
1.04944e-09
1.04953e-09
1.04962e-09
1.04972e-09
1.04981e-09
1.0499e-09
1.04999e-09
1.05009e-09
1.05018e-09
1.05027e-09
1.05036e-09
1.05045e-09
1.05054e-09
1.05065e-09
1.04502e-09
1.04504e-09
1.04507e-09
1.0451e-09
1.04513e-09
1.04515e-09
1.04518e-09
1.04521e-09
1.04524e-09
1.04527e-09
1.0453e-09
1.04532e-09
1.04535e-09
1.04538e-09
1.04541e-09
1.04543e-09
1.04546e-09
1.04549e-09
1.04551e-09
1.04554e-09
1.04556e-09
1.04559e-09
1.04561e-09
1.04564e-09
1.04567e-09
1.0457e-09
1.04573e-09
1.04576e-09
1.04579e-09
1.04582e-09
1.04585e-09
1.04589e-09
1.04592e-09
1.04596e-09
1.046e-09
1.04604e-09
1.04607e-09
1.04612e-09
1.04616e-09
1.0462e-09
1.04624e-09
1.04629e-09
1.04634e-09
1.04638e-09
1.04643e-09
1.04648e-09
1.04653e-09
1.04658e-09
1.04663e-09
1.04668e-09
1.04673e-09
1.04678e-09
1.04684e-09
1.04689e-09
1.04695e-09
1.047e-09
1.04706e-09
1.04712e-09
1.04718e-09
1.04724e-09
1.0473e-09
1.04736e-09
1.04743e-09
1.04749e-09
1.04756e-09
1.04762e-09
1.04769e-09
1.04775e-09
1.04782e-09
1.04789e-09
1.04795e-09
1.04802e-09
1.04809e-09
1.04816e-09
1.04822e-09
1.04829e-09
1.04835e-09
1.04842e-09
1.04848e-09
1.04436e-09
1.04436e-09
1.04437e-09
1.04438e-09
1.04438e-09
1.04439e-09
1.0444e-09
1.04441e-09
1.04442e-09
1.04443e-09
1.04444e-09
1.04445e-09
1.04446e-09
1.04447e-09
1.04448e-09
1.0445e-09
1.04451e-09
1.04452e-09
1.04453e-09
1.04455e-09
1.04456e-09
1.04457e-09
1.04459e-09
1.0446e-09
1.04461e-09
1.04463e-09
1.04464e-09
1.04466e-09
1.04467e-09
1.04469e-09
1.04471e-09
1.04472e-09
1.04474e-09
1.04476e-09
1.04477e-09
1.04479e-09
1.04481e-09
1.04483e-09
1.04484e-09
1.04486e-09
1.04488e-09
1.0449e-09
1.04492e-09
1.04494e-09
1.04496e-09
1.04498e-09
1.045e-09
1.04501e-09
1.04503e-09
1.04505e-09
1.04506e-09
1.04508e-09
1.04509e-09
1.0451e-09
1.04512e-09
1.04513e-09
1.04514e-09
1.04515e-09
1.04516e-09
1.04516e-09
1.04517e-09
1.04518e-09
1.04518e-09
1.04519e-09
1.04519e-09
1.04519e-09
1.04519e-09
1.04519e-09
1.04519e-09
1.04519e-09
1.04518e-09
1.04518e-09
1.04518e-09
1.04518e-09
1.04518e-09
1.04519e-09
1.0452e-09
1.0452e-09
1.04522e-09
1.1066e-09
1.11602e-09
1.12604e-09
1.13701e-09
1.14887e-09
1.16168e-09
1.17546e-09
1.18986e-09
1.20479e-09
1.22035e-09
1.23647e-09
1.25306e-09
1.27005e-09
1.28734e-09
1.30484e-09
1.32248e-09
1.34016e-09
1.35783e-09
1.3754e-09
1.39281e-09
1.41e-09
1.42694e-09
1.44346e-09
1.46014e-09
1.47408e-09
1.49844e-09
1.0823e-09
1.08563e-09
1.0895e-09
1.09385e-09
1.0986e-09
1.10375e-09
1.10927e-09
1.11511e-09
1.12134e-09
1.12793e-09
1.13487e-09
1.14212e-09
1.14966e-09
1.15746e-09
1.16548e-09
1.17368e-09
1.18203e-09
1.1905e-09
1.19906e-09
1.20767e-09
1.21629e-09
1.22494e-09
1.23348e-09
1.24231e-09
1.2497e-09
1.26305e-09
1.07729e-09
1.0793e-09
1.08136e-09
1.08353e-09
1.08584e-09
1.08829e-09
1.09091e-09
1.09369e-09
1.09663e-09
1.09973e-09
1.10301e-09
1.10645e-09
1.11005e-09
1.1138e-09
1.11771e-09
1.12175e-09
1.12593e-09
1.13023e-09
1.13465e-09
1.13917e-09
1.14378e-09
1.1485e-09
1.15323e-09
1.15828e-09
1.1624e-09
1.17065e-09
1.07525e-09
1.07721e-09
1.07921e-09
1.08127e-09
1.08342e-09
1.08564e-09
1.08794e-09
1.09033e-09
1.0928e-09
1.09535e-09
1.098e-09
1.10073e-09
1.10356e-09
1.10648e-09
1.1095e-09
1.11261e-09
1.11581e-09
1.11911e-09
1.1225e-09
1.12598e-09
1.12955e-09
1.13322e-09
1.13692e-09
1.14091e-09
1.14419e-09
1.15072e-09
1.07289e-09
1.07476e-09
1.07669e-09
1.0787e-09
1.08079e-09
1.08296e-09
1.08522e-09
1.08755e-09
1.08996e-09
1.09245e-09
1.09502e-09
1.09766e-09
1.10037e-09
1.10316e-09
1.10602e-09
1.10895e-09
1.11196e-09
1.11503e-09
1.11817e-09
1.12138e-09
1.12465e-09
1.128e-09
1.13137e-09
1.13499e-09
1.13791e-09
1.14391e-09
1.07021e-09
1.07192e-09
1.0737e-09
1.07554e-09
1.07745e-09
1.07944e-09
1.08151e-09
1.08364e-09
1.08585e-09
1.08812e-09
1.09047e-09
1.09288e-09
1.09536e-09
1.0979e-09
1.10051e-09
1.10317e-09
1.10589e-09
1.10868e-09
1.11151e-09
1.1144e-09
1.11734e-09
1.12035e-09
1.12336e-09
1.12657e-09
1.12921e-09
1.13437e-09
1.0676e-09
1.06914e-09
1.07073e-09
1.07239e-09
1.0741e-09
1.07588e-09
1.07772e-09
1.07961e-09
1.08157e-09
1.08359e-09
1.08566e-09
1.08778e-09
1.08997e-09
1.0922e-09
1.09448e-09
1.09682e-09
1.0992e-09
1.10163e-09
1.1041e-09
1.10662e-09
1.10917e-09
1.11178e-09
1.11438e-09
1.11717e-09
1.11942e-09
1.12401e-09
1.06493e-09
1.0663e-09
1.06771e-09
1.06917e-09
1.07069e-09
1.07225e-09
1.07387e-09
1.07554e-09
1.07725e-09
1.07902e-09
1.08083e-09
1.08269e-09
1.08459e-09
1.08654e-09
1.08852e-09
1.09055e-09
1.09262e-09
1.09472e-09
1.09687e-09
1.09905e-09
1.10126e-09
1.10351e-09
1.10576e-09
1.10816e-09
1.11012e-09
1.11396e-09
1.06236e-09
1.06357e-09
1.06481e-09
1.0661e-09
1.06743e-09
1.0688e-09
1.07022e-09
1.07167e-09
1.07317e-09
1.07471e-09
1.07628e-09
1.0779e-09
1.07955e-09
1.08123e-09
1.08295e-09
1.0847e-09
1.08649e-09
1.0883e-09
1.09015e-09
1.09202e-09
1.09392e-09
1.09586e-09
1.09779e-09
1.09985e-09
1.10151e-09
1.1049e-09
1.05991e-09
1.06095e-09
1.06203e-09
1.06314e-09
1.06429e-09
1.06547e-09
1.06669e-09
1.06794e-09
1.06923e-09
1.07054e-09
1.0719e-09
1.07328e-09
1.07469e-09
1.07613e-09
1.0776e-09
1.07909e-09
1.08062e-09
1.08216e-09
1.08373e-09
1.08533e-09
1.08695e-09
1.08859e-09
1.09023e-09
1.09198e-09
1.09341e-09
1.09619e-09
1.05744e-09
1.05834e-09
1.05927e-09
1.06022e-09
1.06121e-09
1.06223e-09
1.06327e-09
1.06434e-09
1.06544e-09
1.06657e-09
1.06772e-09
1.0689e-09
1.0701e-09
1.07132e-09
1.07257e-09
1.07384e-09
1.07513e-09
1.07644e-09
1.07777e-09
1.07912e-09
1.08048e-09
1.08187e-09
1.08325e-09
1.08473e-09
1.08593e-09
1.08827e-09
1.0552e-09
1.05595e-09
1.05671e-09
1.05751e-09
1.05832e-09
1.05917e-09
1.06003e-09
1.06092e-09
1.06183e-09
1.06277e-09
1.06372e-09
1.0647e-09
1.06569e-09
1.06671e-09
1.06774e-09
1.06879e-09
1.06986e-09
1.07094e-09
1.07204e-09
1.07316e-09
1.07429e-09
1.07543e-09
1.07658e-09
1.0778e-09
1.07879e-09
1.08072e-09
1.05278e-09
1.05339e-09
1.05402e-09
1.05466e-09
1.05533e-09
1.05602e-09
1.05672e-09
1.05745e-09
1.05819e-09
1.05895e-09
1.05973e-09
1.06053e-09
1.06134e-09
1.06217e-09
1.06301e-09
1.06386e-09
1.06473e-09
1.06562e-09
1.06651e-09
1.06742e-09
1.06834e-09
1.06927e-09
1.0702e-09
1.07119e-09
1.072e-09
1.07357e-09
1.0509e-09
1.05135e-09
1.05183e-09
1.05232e-09
1.05282e-09
1.05334e-09
1.05387e-09
1.05442e-09
1.05499e-09
1.05557e-09
1.05617e-09
1.05679e-09
1.05743e-09
1.05809e-09
1.05877e-09
1.05947e-09
1.06017e-09
1.06085e-09
1.06153e-09
1.0622e-09
1.06289e-09
1.06358e-09
1.06428e-09
1.06503e-09
1.06562e-09
1.06685e-09
1.04867e-09
1.049e-09
1.04935e-09
1.04971e-09
1.05008e-09
1.05046e-09
1.05085e-09
1.05126e-09
1.05167e-09
1.05211e-09
1.05255e-09
1.05302e-09
1.05349e-09
1.05399e-09
1.0545e-09
1.05503e-09
1.05556e-09
1.05609e-09
1.05663e-09
1.05717e-09
1.0577e-09
1.05821e-09
1.05872e-09
1.05927e-09
1.05971e-09
1.06055e-09
1.04527e-09
1.04538e-09
1.04551e-09
1.04565e-09
1.0458e-09
1.04596e-09
1.04614e-09
1.04633e-09
1.04654e-09
1.04675e-09
1.04698e-09
1.04722e-09
1.04747e-09
1.04773e-09
1.048e-09
1.04827e-09
1.04855e-09
1.04883e-09
1.04911e-09
1.04939e-09
1.04968e-09
1.04997e-09
1.05027e-09
1.05059e-09
1.05084e-09
1.0512e-09
1.0452e-09
1.04743e-09
1.04967e-09
1.05192e-09
1.05417e-09
1.05642e-09
1.05867e-09
1.06095e-09
1.06309e-09
1.06553e-09
1.04517e-09
1.04733e-09
1.0495e-09
1.05168e-09
1.05386e-09
1.05604e-09
1.05823e-09
1.06039e-09
1.06262e-09
1.06472e-09
1.04512e-09
1.04717e-09
1.04923e-09
1.0513e-09
1.05337e-09
1.05545e-09
1.05752e-09
1.05962e-09
1.06166e-09
1.06384e-09
1.04505e-09
1.04697e-09
1.04889e-09
1.05082e-09
1.05275e-09
1.05469e-09
1.05663e-09
1.05859e-09
1.06052e-09
1.06251e-09
1.04497e-09
1.04674e-09
1.04851e-09
1.05028e-09
1.05206e-09
1.05384e-09
1.05562e-09
1.05742e-09
1.05917e-09
1.06104e-09
1.04489e-09
1.04649e-09
1.0481e-09
1.0497e-09
1.05131e-09
1.05293e-09
1.05454e-09
1.05617e-09
1.05777e-09
1.05944e-09
1.04481e-09
1.04624e-09
1.04768e-09
1.04912e-09
1.05056e-09
1.052e-09
1.05344e-09
1.0549e-09
1.05632e-09
1.05783e-09
1.04473e-09
1.046e-09
1.04726e-09
1.04854e-09
1.04981e-09
1.05108e-09
1.05236e-09
1.05364e-09
1.0549e-09
1.05622e-09
1.04465e-09
1.04575e-09
1.04686e-09
1.04797e-09
1.04908e-09
1.05019e-09
1.0513e-09
1.05242e-09
1.05352e-09
1.05467e-09
1.04457e-09
1.04552e-09
1.04648e-09
1.04743e-09
1.04838e-09
1.04934e-09
1.05029e-09
1.05125e-09
1.05219e-09
1.05319e-09
1.0445e-09
1.0453e-09
1.04611e-09
1.04691e-09
1.04772e-09
1.04853e-09
1.04933e-09
1.05014e-09
1.05094e-09
1.05177e-09
1.04443e-09
1.04509e-09
1.04576e-09
1.04642e-09
1.04708e-09
1.04775e-09
1.04841e-09
1.04908e-09
1.04973e-09
1.05042e-09
1.04436e-09
1.04489e-09
1.04542e-09
1.04594e-09
1.04647e-09
1.047e-09
1.04752e-09
1.04805e-09
1.04857e-09
1.04911e-09
1.04429e-09
1.04469e-09
1.04508e-09
1.04547e-09
1.04586e-09
1.04626e-09
1.04665e-09
1.04704e-09
1.04743e-09
1.04784e-09
1.04422e-09
1.04447e-09
1.04472e-09
1.04497e-09
1.04522e-09
1.04547e-09
1.04573e-09
1.04598e-09
1.04623e-09
1.04649e-09
1.04414e-09
1.04422e-09
1.04431e-09
1.0444e-09
1.04448e-09
1.04455e-09
1.04459e-09
1.04463e-09
1.04466e-09
1.04469e-09
1.06685e-09
1.06713e-09
1.06735e-09
1.06753e-09
1.06766e-09
1.06775e-09
1.06781e-09
1.06785e-09
1.06787e-09
1.06787e-09
1.06786e-09
1.06784e-09
1.0678e-09
1.06775e-09
1.06769e-09
1.06763e-09
1.06756e-09
1.06748e-09
1.0674e-09
1.06732e-09
1.06723e-09
1.06713e-09
1.06703e-09
1.06691e-09
1.0668e-09
1.06668e-09
1.06656e-09
1.06643e-09
1.06631e-09
1.06618e-09
1.06605e-09
1.06592e-09
1.0658e-09
1.06568e-09
1.06557e-09
1.06547e-09
1.06539e-09
1.06534e-09
1.06533e-09
1.06535e-09
1.06546e-09
1.06565e-09
1.06594e-09
1.06649e-09
1.06703e-09
1.06745e-09
1.06796e-09
1.06809e-09
1.06798e-09
1.06789e-09
1.06783e-09
1.06778e-09
1.06776e-09
1.06775e-09
1.06776e-09
1.06779e-09
1.06783e-09
1.06788e-09
1.06794e-09
1.06802e-09
1.06814e-09
1.06814e-09
1.0682e-09
1.06851e-09
1.06877e-09
1.06895e-09
1.06905e-09
1.0691e-09
1.06911e-09
1.0691e-09
1.06908e-09
1.06904e-09
1.069e-09
1.06896e-09
1.06892e-09
1.06888e-09
1.06885e-09
1.06886e-09
1.0688e-09
1.06585e-09
1.06608e-09
1.0663e-09
1.06649e-09
1.06667e-09
1.06684e-09
1.06699e-09
1.06713e-09
1.06726e-09
1.06738e-09
1.06749e-09
1.06758e-09
1.06766e-09
1.06773e-09
1.06779e-09
1.06783e-09
1.06786e-09
1.06787e-09
1.06788e-09
1.06788e-09
1.06784e-09
1.0678e-09
1.06768e-09
1.06755e-09
1.06746e-09
1.06738e-09
1.06729e-09
1.06719e-09
1.06708e-09
1.06696e-09
1.06684e-09
1.0667e-09
1.06655e-09
1.0664e-09
1.06623e-09
1.06606e-09
1.06588e-09
1.0657e-09
1.06549e-09
1.0653e-09
1.06511e-09
1.06487e-09
1.0646e-09
1.06443e-09
1.06443e-09
1.06454e-09
1.06462e-09
1.06456e-09
1.06436e-09
1.06414e-09
1.0639e-09
1.06365e-09
1.0634e-09
1.06315e-09
1.06289e-09
1.06264e-09
1.06238e-09
1.06212e-09
1.06187e-09
1.06163e-09
1.06143e-09
1.0612e-09
1.0611e-09
1.06115e-09
1.06132e-09
1.06157e-09
1.06185e-09
1.06221e-09
1.0626e-09
1.06293e-09
1.0632e-09
1.0634e-09
1.06356e-09
1.06369e-09
1.06377e-09
1.06382e-09
1.06384e-09
1.06383e-09
1.06378e-09
1.06504e-09
1.06527e-09
1.06547e-09
1.06565e-09
1.06583e-09
1.06599e-09
1.06614e-09
1.06628e-09
1.06641e-09
1.06654e-09
1.06665e-09
1.06675e-09
1.06684e-09
1.0669e-09
1.06694e-09
1.06695e-09
1.06697e-09
1.067e-09
1.06703e-09
1.06705e-09
1.06706e-09
1.06706e-09
1.06705e-09
1.06704e-09
1.06701e-09
1.06696e-09
1.06691e-09
1.06685e-09
1.06677e-09
1.06669e-09
1.0666e-09
1.06649e-09
1.06637e-09
1.06625e-09
1.06616e-09
1.06608e-09
1.06603e-09
1.066e-09
1.06603e-09
1.06611e-09
1.06625e-09
1.0665e-09
1.06679e-09
1.06707e-09
1.06733e-09
1.06746e-09
1.06756e-09
1.06766e-09
1.06754e-09
1.06732e-09
1.06707e-09
1.06681e-09
1.06655e-09
1.06627e-09
1.06599e-09
1.0657e-09
1.06541e-09
1.06512e-09
1.06481e-09
1.06451e-09
1.0642e-09
1.06388e-09
1.06357e-09
1.06328e-09
1.06299e-09
1.0627e-09
1.06272e-09
1.06278e-09
1.06275e-09
1.06266e-09
1.06249e-09
1.06225e-09
1.06199e-09
1.06176e-09
1.06154e-09
1.06133e-09
1.06113e-09
1.06097e-09
1.06076e-09
1.06359e-09
1.0638e-09
1.06398e-09
1.06415e-09
1.06432e-09
1.06447e-09
1.06462e-09
1.06476e-09
1.06488e-09
1.06501e-09
1.06512e-09
1.06521e-09
1.06528e-09
1.06533e-09
1.06536e-09
1.0654e-09
1.06546e-09
1.06551e-09
1.06555e-09
1.06559e-09
1.06562e-09
1.06564e-09
1.06565e-09
1.06565e-09
1.06564e-09
1.06562e-09
1.0656e-09
1.06557e-09
1.06553e-09
1.06548e-09
1.06542e-09
1.06535e-09
1.06528e-09
1.0652e-09
1.06511e-09
1.06501e-09
1.0649e-09
1.0648e-09
1.06469e-09
1.06453e-09
1.0644e-09
1.06432e-09
1.06432e-09
1.06442e-09
1.06452e-09
1.06458e-09
1.06459e-09
1.06447e-09
1.0643e-09
1.06412e-09
1.06394e-09
1.06374e-09
1.06354e-09
1.06334e-09
1.06313e-09
1.06291e-09
1.06269e-09
1.06246e-09
1.06223e-09
1.06199e-09
1.06175e-09
1.06152e-09
1.06125e-09
1.06098e-09
1.06075e-09
1.0606e-09
1.06055e-09
1.06056e-09
1.06061e-09
1.06067e-09
1.06077e-09
1.06091e-09
1.06101e-09
1.06107e-09
1.06109e-09
1.06108e-09
1.06104e-09
1.06098e-09
1.06088e-09
1.06206e-09
1.06225e-09
1.06242e-09
1.06257e-09
1.06272e-09
1.06286e-09
1.063e-09
1.06312e-09
1.06324e-09
1.06336e-09
1.06346e-09
1.06356e-09
1.06365e-09
1.06374e-09
1.06382e-09
1.06389e-09
1.06396e-09
1.06401e-09
1.06406e-09
1.06409e-09
1.06412e-09
1.06415e-09
1.06416e-09
1.06417e-09
1.06417e-09
1.06417e-09
1.06415e-09
1.06413e-09
1.0641e-09
1.06407e-09
1.06403e-09
1.06398e-09
1.06392e-09
1.06386e-09
1.06379e-09
1.0637e-09
1.06363e-09
1.06357e-09
1.06354e-09
1.06355e-09
1.06361e-09
1.06373e-09
1.06389e-09
1.06404e-09
1.06419e-09
1.06426e-09
1.0643e-09
1.06436e-09
1.06433e-09
1.06418e-09
1.06401e-09
1.06383e-09
1.06365e-09
1.06346e-09
1.06327e-09
1.06307e-09
1.06287e-09
1.06266e-09
1.06245e-09
1.06223e-09
1.06202e-09
1.06179e-09
1.06157e-09
1.06135e-09
1.0611e-09
1.06087e-09
1.06067e-09
1.06039e-09
1.06014e-09
1.06008e-09
1.06009e-09
1.06004e-09
1.05994e-09
1.05979e-09
1.05959e-09
1.05935e-09
1.05911e-09
1.05887e-09
1.0586e-09
1.06034e-09
1.06051e-09
1.06067e-09
1.06081e-09
1.06095e-09
1.06107e-09
1.0612e-09
1.06131e-09
1.06143e-09
1.06153e-09
1.06163e-09
1.06172e-09
1.06181e-09
1.06189e-09
1.06196e-09
1.06203e-09
1.06209e-09
1.06215e-09
1.0622e-09
1.06224e-09
1.06228e-09
1.06231e-09
1.06233e-09
1.06235e-09
1.06236e-09
1.06237e-09
1.06237e-09
1.06236e-09
1.06235e-09
1.06233e-09
1.06231e-09
1.06227e-09
1.06224e-09
1.0622e-09
1.06215e-09
1.06209e-09
1.06204e-09
1.06197e-09
1.06191e-09
1.06183e-09
1.06173e-09
1.06166e-09
1.06163e-09
1.06166e-09
1.0617e-09
1.06173e-09
1.06171e-09
1.06162e-09
1.06151e-09
1.06138e-09
1.06125e-09
1.06112e-09
1.06098e-09
1.06085e-09