/*--------------------------------*- C++ -*----------------------------------*\
| =========                 |                                                 |
| \\      /  F ield         | OpenFOAM: The Open Source CFD Toolbox           |
|  \\    /   O peration     | Version:  2412                                  |
|   \\  /    A nd           | Website:  www.openfoam.com                      |
|    \\/     M anipulation  |                                                 |
\*---------------------------------------------------------------------------*/
FoamFile
{
    version     2.0;
    format      ascii;
    arch        "LSB;label=32;scalar=64";
    class       volScalarField;
    location    "1500";
    object      nuTilda;
}
// * * * * * * * * * * * * * * * * * * * * * * * * * * * * * * * * * * * * * //

dimensions      [0 2 -1 0 0 0 0];

internalField   nonuniform List<scalar> 
20428
(
5.84011e-06
5.84033e-06
5.84055e-06
5.84077e-06
5.84098e-06
5.84118e-06
5.84138e-06
5.84155e-06
5.84179e-06
5.84188e-06
5.84e-06
5.84002e-06
5.84002e-06
5.84002e-06
5.84002e-06
5.84002e-06
5.84003e-06
5.84005e-06
5.8401e-06
5.84012e-06
5.84008e-06
5.84022e-06
5.84037e-06
5.84053e-06
5.84069e-06
5.84086e-06
5.84103e-06
5.84121e-06
5.84138e-06
5.84158e-06
5.84013e-06
5.84039e-06
5.84066e-06
5.84093e-06
5.8412e-06
5.84149e-06
5.84178e-06
5.84208e-06
5.84237e-06
5.84269e-06
5.84017e-06
5.84051e-06
5.84085e-06
5.8412e-06
5.84155e-06
5.84191e-06
5.84228e-06
5.84266e-06
5.84302e-06
5.84343e-06
5.84019e-06
5.84057e-06
5.84096e-06
5.84136e-06
5.84176e-06
5.84216e-06
5.84257e-06
5.843e-06
5.84341e-06
5.84385e-06
5.8402e-06
5.8406e-06
5.84101e-06
5.84143e-06
5.84185e-06
5.84227e-06
5.8427e-06
5.84315e-06
5.84357e-06
5.84404e-06
5.8402e-06
5.84061e-06
5.84102e-06
5.84143e-06
5.84185e-06
5.84227e-06
5.8427e-06
5.84314e-06
5.84358e-06
5.84403e-06
5.84019e-06
5.84059e-06
5.84098e-06
5.84138e-06
5.84178e-06
5.84219e-06
5.84261e-06
5.84303e-06
5.84345e-06
5.84389e-06
5.84018e-06
5.84055e-06
5.84092e-06
5.84129e-06
5.84166e-06
5.84205e-06
5.84243e-06
5.84283e-06
5.84322e-06
5.84362e-06
5.84016e-06
5.84049e-06
5.84083e-06
5.84116e-06
5.8415e-06
5.84185e-06
5.8422e-06
5.84255e-06
5.84291e-06
5.84327e-06
5.84014e-06
5.84043e-06
5.84072e-06
5.84102e-06
5.84131e-06
5.84161e-06
5.84192e-06
5.84223e-06
5.84253e-06
5.84285e-06
5.84012e-06
5.84036e-06
5.8406e-06
5.84085e-06
5.84109e-06
5.84134e-06
5.84159e-06
5.84185e-06
5.84211e-06
5.84237e-06
5.84009e-06
5.84028e-06
5.84046e-06
5.84065e-06
5.84085e-06
5.84104e-06
5.84124e-06
5.84144e-06
5.84163e-06
5.84184e-06
5.84006e-06
5.84018e-06
5.8403e-06
5.84043e-06
5.84056e-06
5.84069e-06
5.84082e-06
5.84095e-06
5.84109e-06
5.84122e-06
5.84002e-06
5.84006e-06
5.84011e-06
5.84015e-06
5.8402e-06
5.84024e-06
5.84027e-06
5.8403e-06
5.84031e-06
5.84034e-06
5.84188e-06
5.84185e-06
5.84178e-06
5.8417e-06
5.84161e-06
5.84153e-06
5.84146e-06
5.84141e-06
5.84138e-06
5.84136e-06
5.84137e-06
5.8414e-06
5.84145e-06
5.84153e-06
5.84163e-06
5.84175e-06
5.8419e-06
5.84208e-06
5.84228e-06
5.84251e-06
5.84276e-06
5.84303e-06
5.84333e-06
5.84366e-06
5.84401e-06
5.84438e-06
5.84479e-06
5.84522e-06
5.84568e-06
5.84616e-06
5.84666e-06
5.8472e-06
5.84775e-06
5.84834e-06
5.84895e-06
5.84958e-06
5.85025e-06
5.85094e-06
5.85166e-06
5.85241e-06
5.8532e-06
5.85401e-06
5.85486e-06
5.85575e-06
5.85666e-06
5.85762e-06
5.85862e-06
5.85965e-06
5.86073e-06
5.86184e-06
5.86301e-06
5.86421e-06
5.86547e-06
5.86677e-06
5.86813e-06
5.86953e-06
5.87098e-06
5.8725e-06
5.87407e-06
5.8757e-06
5.8774e-06
5.87915e-06
5.88097e-06
5.88284e-06
5.88478e-06
5.88678e-06
5.88884e-06
5.89097e-06
5.89314e-06
5.89538e-06
5.89767e-06
5.90002e-06
5.90242e-06
5.90488e-06
5.9074e-06
5.90998e-06
5.91265e-06
5.91529e-06
5.91834e-06
5.84021e-06
5.84028e-06
5.84039e-06
5.84051e-06
5.84065e-06
5.84081e-06
5.84098e-06
5.84117e-06
5.84137e-06
5.84158e-06
5.84181e-06
5.84205e-06
5.84231e-06
5.84259e-06
5.8429e-06
5.84322e-06
5.84358e-06
5.84395e-06
5.84435e-06
5.84478e-06
5.84523e-06
5.84571e-06
5.8462e-06
5.84669e-06
5.84716e-06
5.84761e-06
5.84807e-06
5.84852e-06
5.849e-06
5.84948e-06
5.84997e-06
5.85048e-06
5.851e-06
5.85153e-06
5.85208e-06
5.85264e-06
5.85321e-06
5.85379e-06
5.85439e-06
5.85499e-06
5.85561e-06
5.85624e-06
5.85689e-06
5.85755e-06
5.85821e-06
5.85889e-06
5.85959e-06
5.86029e-06
5.86101e-06
5.86174e-06
5.86248e-06
5.86323e-06
5.864e-06
5.86478e-06
5.86557e-06
5.86638e-06
5.8672e-06
5.86804e-06
5.86889e-06
5.86977e-06
5.87066e-06
5.87157e-06
5.8725e-06
5.87344e-06
5.87441e-06
5.87539e-06
5.87639e-06
5.87741e-06
5.87845e-06
5.8795e-06
5.88058e-06
5.88168e-06
5.88281e-06
5.88396e-06
5.88514e-06
5.88635e-06
5.8876e-06
5.8888e-06
5.89038e-06
5.84182e-06
5.84193e-06
5.84206e-06
5.84221e-06
5.84237e-06
5.84254e-06
5.84273e-06
5.84292e-06
5.84313e-06
5.84334e-06
5.84357e-06
5.84381e-06
5.84406e-06
5.84432e-06
5.84459e-06
5.84487e-06
5.84516e-06
5.84546e-06
5.84577e-06
5.8461e-06
5.84644e-06
5.84679e-06
5.84716e-06
5.84753e-06
5.84792e-06
5.84832e-06
5.84872e-06
5.84914e-06
5.84957e-06
5.85001e-06
5.85047e-06
5.85093e-06
5.85141e-06
5.8519e-06
5.85241e-06
5.85293e-06
5.85346e-06
5.85399e-06
5.85455e-06
5.85512e-06
5.8557e-06
5.85629e-06
5.85689e-06
5.85751e-06
5.85814e-06
5.85877e-06
5.85942e-06
5.86008e-06
5.86075e-06
5.86143e-06
5.86212e-06
5.86282e-06
5.86353e-06
5.86425e-06
5.86497e-06
5.86571e-06
5.86645e-06
5.8672e-06
5.86795e-06
5.86872e-06
5.86948e-06
5.87026e-06
5.87104e-06
5.87183e-06
5.87262e-06
5.87342e-06
5.87422e-06
5.87503e-06
5.87584e-06
5.87666e-06
5.87748e-06
5.8783e-06
5.87913e-06
5.87997e-06
5.88081e-06
5.88165e-06
5.8825e-06
5.88334e-06
5.88428e-06
5.84297e-06
5.84309e-06
5.84322e-06
5.84337e-06
5.84353e-06
5.8437e-06
5.84388e-06
5.84407e-06
5.84428e-06
5.8445e-06
5.84474e-06
5.845e-06
5.84527e-06
5.84556e-06
5.84587e-06
5.84619e-06
5.84653e-06
5.84688e-06
5.84723e-06
5.84758e-06
5.84792e-06
5.84827e-06
5.84862e-06
5.84898e-06
5.84934e-06
5.84972e-06
5.85011e-06
5.85051e-06
5.85091e-06
5.85133e-06
5.85176e-06
5.8522e-06
5.85264e-06
5.8531e-06
5.85357e-06
5.85404e-06
5.85452e-06
5.85502e-06
5.85552e-06
5.85603e-06
5.85654e-06
5.85707e-06
5.85761e-06
5.85815e-06
5.8587e-06
5.85926e-06
5.85982e-06
5.8604e-06
5.86098e-06
5.86157e-06
5.86216e-06
5.86277e-06
5.86338e-06
5.86399e-06
5.86462e-06
5.86525e-06
5.86589e-06
5.86653e-06
5.86719e-06
5.86785e-06
5.86851e-06
5.86918e-06
5.86986e-06
5.87055e-06
5.87124e-06
5.87194e-06
5.87264e-06
5.87335e-06
5.87407e-06
5.87479e-06
5.87552e-06
5.87625e-06
5.87699e-06
5.87773e-06
5.87848e-06
5.87923e-06
5.87998e-06
5.88073e-06
5.88156e-06
5.84377e-06
5.84388e-06
5.84402e-06
5.84417e-06
5.84432e-06
5.84448e-06
5.84465e-06
5.84483e-06
5.84502e-06
5.84521e-06
5.84542e-06
5.84563e-06
5.84585e-06
5.84607e-06
5.84631e-06
5.84656e-06
5.84682e-06
5.84708e-06
5.84736e-06
5.84764e-06
5.84793e-06
5.84823e-06
5.84854e-06
5.84885e-06
5.84917e-06
5.8495e-06
5.84984e-06
5.85019e-06
5.85054e-06
5.85091e-06
5.85128e-06
5.85167e-06
5.85206e-06
5.85246e-06
5.85286e-06
5.85328e-06
5.8537e-06
5.85413e-06
5.85456e-06
5.855e-06
5.85546e-06
5.85593e-06
5.8564e-06
5.85689e-06
5.85738e-06
5.85788e-06
5.85839e-06
5.8589e-06
5.85942e-06
5.85995e-06
5.86049e-06
5.86103e-06
5.86159e-06
5.86215e-06
5.86271e-06
5.86329e-06
5.86387e-06
5.86446e-06
5.86505e-06
5.86566e-06
5.86627e-06
5.86689e-06
5.86751e-06
5.86814e-06
5.86878e-06
5.86942e-06
5.87007e-06
5.87073e-06
5.8714e-06
5.87207e-06
5.87274e-06
5.87342e-06
5.87411e-06
5.87481e-06
5.8755e-06
5.87621e-06
5.87692e-06
5.87762e-06
5.87841e-06
5.8442e-06
5.84431e-06
5.84444e-06
5.84458e-06
5.84474e-06
5.84491e-06
5.84509e-06
5.84528e-06
5.84548e-06
5.84569e-06
5.84591e-06
5.84614e-06
5.84637e-06
5.84659e-06
5.84683e-06
5.84706e-06
5.8473e-06
5.84754e-06
5.84778e-06
5.84804e-06
5.8483e-06
5.84857e-06
5.84884e-06
5.84912e-06
5.84941e-06
5.8497e-06
5.85e-06
5.85031e-06
5.85062e-06
5.85094e-06
5.85126e-06
5.85159e-06
5.85193e-06
5.85227e-06
5.85262e-06
5.85298e-06
5.85334e-06
5.85371e-06
5.85409e-06
5.85448e-06
5.85487e-06
5.85527e-06
5.85567e-06
5.85609e-06
5.85651e-06
5.85694e-06
5.85737e-06
5.85781e-06
5.85826e-06
5.85872e-06
5.85919e-06
5.85966e-06
5.86014e-06
5.86062e-06
5.86112e-06
5.86162e-06
5.86212e-06
5.86264e-06
5.86316e-06
5.86369e-06
5.86422e-06
5.86476e-06
5.8653e-06
5.86586e-06
5.86642e-06
5.86698e-06
5.86755e-06
5.86813e-06
5.86871e-06
5.8693e-06
5.86989e-06
5.87049e-06
5.87109e-06
5.8717e-06
5.87231e-06
5.87293e-06
5.87356e-06
5.87417e-06
5.87486e-06
5.84439e-06
5.8445e-06
5.84462e-06
5.84475e-06
5.84489e-06
5.84503e-06
5.84518e-06
5.84534e-06
5.8455e-06
5.84567e-06
5.84584e-06
5.84603e-06
5.84621e-06
5.8464e-06
5.8466e-06
5.8468e-06
5.84701e-06
5.84722e-06
5.84744e-06
5.84766e-06
5.84789e-06
5.84813e-06
5.84837e-06
5.84861e-06
5.84887e-06
5.84912e-06
5.84939e-06
5.84965e-06
5.84993e-06
5.85021e-06
5.8505e-06
5.85079e-06
5.85109e-06
5.8514e-06
5.85171e-06
5.85203e-06
5.85235e-06
5.85267e-06
5.853e-06
5.85333e-06
5.85367e-06
5.85403e-06
5.8544e-06
5.85477e-06
5.85515e-06
5.85554e-06
5.85593e-06
5.85633e-06
5.85673e-06
5.85715e-06
5.85756e-06
5.85799e-06
5.85841e-06
5.85885e-06
5.85929e-06
5.85974e-06
5.86019e-06
5.86064e-06
5.86111e-06
5.86157e-06
5.86205e-06
5.86253e-06
5.86301e-06
5.8635e-06
5.86399e-06
5.86449e-06
5.86499e-06
5.8655e-06
5.86601e-06
5.86653e-06
5.86705e-06
5.86758e-06
5.86811e-06
5.86864e-06
5.86918e-06
5.86972e-06
5.87026e-06
5.8708e-06
5.87141e-06
5.84437e-06
5.84448e-06
5.8446e-06
5.84473e-06
5.84487e-06
5.845e-06
5.84514e-06
5.84529e-06
5.84543e-06
5.84558e-06
5.84573e-06
5.84589e-06
5.84605e-06
5.84621e-06
5.84639e-06
5.84656e-06
5.84674e-06
5.84693e-06
5.84712e-06
5.84731e-06
5.84751e-06
5.84772e-06
5.84793e-06
5.84815e-06
5.84837e-06
5.84859e-06
5.84883e-06
5.84906e-06
5.84931e-06
5.84955e-06
5.84981e-06
5.85007e-06
5.85033e-06
5.8506e-06
5.85087e-06
5.85116e-06
5.85143e-06
5.85172e-06
5.85202e-06
5.85232e-06
5.85262e-06
5.85293e-06
5.85325e-06
5.85357e-06
5.8539e-06
5.85423e-06
5.85457e-06
5.85491e-06
5.85526e-06
5.85562e-06
5.85597e-06
5.85634e-06
5.85671e-06
5.85708e-06
5.85746e-06
5.85785e-06
5.85823e-06
5.85863e-06
5.85903e-06
5.85943e-06
5.85984e-06
5.86025e-06
5.86066e-06
5.86108e-06
5.86151e-06
5.86194e-06
5.86237e-06
5.8628e-06
5.86324e-06
5.86369e-06
5.86413e-06
5.86459e-06
5.86504e-06
5.8655e-06
5.86596e-06
5.86642e-06
5.8669e-06
5.86736e-06
5.86788e-06
5.84419e-06
5.84428e-06
5.84439e-06
5.84449e-06
5.84461e-06
5.84472e-06
5.84485e-06
5.84497e-06
5.8451e-06
5.84523e-06
5.84537e-06
5.84551e-06
5.84565e-06
5.8458e-06
5.84595e-06
5.84611e-06
5.84627e-06
5.84643e-06
5.8466e-06
5.84677e-06
5.84695e-06
5.84713e-06
5.84732e-06
5.84751e-06
5.8477e-06
5.8479e-06
5.8481e-06
5.84831e-06
5.84852e-06
5.84873e-06
5.84895e-06
5.84918e-06
5.8494e-06
5.84964e-06
5.84988e-06
5.85012e-06
5.85036e-06
5.85061e-06
5.85085e-06
5.8511e-06
5.85134e-06
5.85159e-06
5.85185e-06
5.85212e-06
5.85239e-06
5.85267e-06
5.85296e-06
5.85326e-06
5.85356e-06
5.85387e-06
5.85418e-06
5.8545e-06
5.85482e-06
5.85514e-06
5.85547e-06
5.8558e-06
5.85614e-06
5.85648e-06
5.85682e-06
5.85717e-06
5.85752e-06
5.85788e-06
5.85824e-06
5.8586e-06
5.85897e-06
5.85934e-06
5.85971e-06
5.86009e-06
5.86047e-06
5.86085e-06
5.86124e-06
5.86162e-06
5.86202e-06
5.86241e-06
5.86281e-06
5.86321e-06
5.86361e-06
5.86401e-06
5.86445e-06
5.8439e-06
5.84398e-06
5.84407e-06
5.84417e-06
5.84427e-06
5.84437e-06
5.84448e-06
5.84459e-06
5.8447e-06
5.84482e-06
5.84494e-06
5.84506e-06
5.84518e-06
5.84531e-06
5.84545e-06
5.84558e-06
5.84572e-06
5.84586e-06
5.84601e-06
5.84616e-06
5.84631e-06
5.84647e-06
5.84663e-06
5.84679e-06
5.84696e-06
5.84713e-06
5.8473e-06
5.84748e-06
5.84766e-06
5.84784e-06
5.84803e-06
5.84822e-06
5.84842e-06
5.84862e-06
5.84882e-06
5.84903e-06
5.84924e-06
5.84945e-06
5.84966e-06
5.84988e-06
5.85011e-06
5.85034e-06
5.85057e-06
5.85081e-06
5.85104e-06
5.85128e-06
5.85152e-06
5.85176e-06
5.85201e-06
5.85227e-06
5.85252e-06
5.85278e-06
5.85305e-06
5.85332e-06
5.8536e-06
5.85388e-06
5.85416e-06
5.85445e-06
5.85474e-06
5.85503e-06
5.85533e-06
5.85563e-06
5.85593e-06
5.85624e-06
5.85655e-06
5.85686e-06
5.85718e-06
5.85749e-06
5.85782e-06
5.85814e-06
5.85847e-06
5.8588e-06
5.85913e-06
5.85946e-06
5.8598e-06
5.86013e-06
5.86048e-06
5.86081e-06
5.86119e-06
5.84351e-06
5.84359e-06
5.84366e-06
5.84375e-06
5.84383e-06
5.84392e-06
5.84401e-06
5.84411e-06
5.84421e-06
5.84431e-06
5.84441e-06
5.84451e-06
5.84462e-06
5.84473e-06
5.84484e-06
5.84496e-06
5.84508e-06
5.8452e-06
5.84532e-06
5.84545e-06
5.84558e-06
5.84571e-06
5.84584e-06
5.84598e-06
5.84612e-06
5.84627e-06
5.84641e-06
5.84656e-06
5.84671e-06
5.84687e-06
5.84703e-06
5.84719e-06
5.84735e-06
5.84752e-06
5.84769e-06
5.84786e-06
5.84804e-06
5.84822e-06
5.8484e-06
5.84859e-06
5.84878e-06
5.84897e-06
5.84916e-06
5.84935e-06
5.84954e-06
5.84972e-06
5.84991e-06
5.85009e-06
5.85027e-06
5.85046e-06
5.85065e-06
5.85085e-06
5.85105e-06
5.85127e-06
5.85149e-06
5.85172e-06
5.85195e-06
5.85219e-06
5.85244e-06
5.85268e-06
5.85293e-06
5.85318e-06
5.85344e-06
5.85369e-06
5.85396e-06
5.85422e-06
5.85449e-06
5.85475e-06
5.85503e-06
5.8553e-06
5.85558e-06
5.85585e-06
5.85613e-06
5.85642e-06
5.8567e-06
5.85699e-06
5.85728e-06
5.85756e-06
5.85788e-06
5.84306e-06
5.84313e-06
5.84319e-06
5.84326e-06
5.84334e-06
5.84341e-06
5.84349e-06
5.84357e-06
5.84365e-06
5.84373e-06
5.84382e-06
5.84391e-06
5.844e-06
5.84409e-06
5.84418e-06
5.84428e-06
5.84438e-06
5.84448e-06
5.84458e-06
5.84469e-06
5.8448e-06
5.84491e-06
5.84502e-06
5.84513e-06
5.84525e-06
5.84537e-06
5.84549e-06
5.84561e-06
5.84574e-06
5.84586e-06
5.846e-06
5.84613e-06
5.84626e-06
5.8464e-06
5.84654e-06
5.84669e-06
5.84683e-06
5.84698e-06
5.84713e-06
5.84728e-06
5.84744e-06
5.8476e-06
5.84776e-06
5.84793e-06
5.84809e-06
5.84826e-06
5.84843e-06
5.8486e-06
5.84877e-06
5.84895e-06
5.84913e-06
5.84931e-06
5.8495e-06
5.84968e-06
5.84986e-06
5.85005e-06
5.85023e-06
5.85042e-06
5.8506e-06
5.85079e-06
5.85098e-06
5.85118e-06
5.85138e-06
5.85158e-06
5.85178e-06
5.85199e-06
5.8522e-06
5.85241e-06
5.85263e-06
5.85285e-06
5.85306e-06
5.85329e-06
5.85351e-06
5.85373e-06
5.85396e-06
5.85419e-06
5.85442e-06
5.85465e-06
5.8549e-06
5.84254e-06
5.84259e-06
5.84264e-06
5.8427e-06
5.84276e-06
5.84282e-06
5.84288e-06
5.84295e-06
5.84302e-06
5.84308e-06
5.84315e-06
5.84322e-06
5.8433e-06
5.84337e-06
5.84345e-06
5.84353e-06
5.84361e-06
5.84369e-06
5.84377e-06
5.84385e-06
5.84394e-06
5.84403e-06
5.84412e-06
5.84421e-06
5.8443e-06
5.8444e-06
5.8445e-06
5.8446e-06
5.8447e-06
5.8448e-06
5.84491e-06
5.84501e-06
5.84512e-06
5.84523e-06
5.84534e-06
5.84546e-06
5.84557e-06
5.84569e-06
5.84581e-06
5.84593e-06
5.84606e-06
5.84618e-06
5.84631e-06
5.84644e-06
5.84657e-06
5.84671e-06
5.84685e-06
5.84699e-06
5.84712e-06
5.84727e-06
5.84741e-06
5.84756e-06
5.8477e-06
5.84785e-06
5.848e-06
5.84814e-06
5.84828e-06
5.84842e-06
5.84856e-06
5.84869e-06
5.84881e-06
5.84894e-06
5.84906e-06
5.84919e-06
5.84933e-06
5.84947e-06
5.84962e-06
5.84978e-06
5.84993e-06
5.85009e-06
5.85026e-06
5.85042e-06
5.85059e-06
5.85076e-06
5.85093e-06
5.85111e-06
5.85128e-06
5.85146e-06
5.85165e-06
5.84198e-06
5.84201e-06
5.84206e-06
5.8421e-06
5.84215e-06
5.84219e-06
5.84224e-06
5.84229e-06
5.84234e-06
5.84239e-06
5.84245e-06
5.8425e-06
5.84256e-06
5.84261e-06
5.84267e-06
5.84273e-06
5.84279e-06
5.84285e-06
5.84292e-06
5.84298e-06
5.84305e-06
5.84312e-06
5.84319e-06
5.84326e-06
5.84333e-06
5.8434e-06
5.84347e-06
5.84355e-06
5.84362e-06
5.8437e-06
5.84378e-06
5.84386e-06
5.84394e-06
5.84402e-06
5.8441e-06
5.84418e-06
5.84427e-06
5.84436e-06
5.84445e-06
5.84454e-06
5.84463e-06
5.84472e-06
5.84481e-06
5.84491e-06
5.84501e-06
5.84511e-06
5.84521e-06
5.84531e-06
5.84541e-06
5.84552e-06
5.84562e-06
5.84573e-06
5.84584e-06
5.84595e-06
5.84607e-06
5.84619e-06
5.84631e-06
5.84643e-06
5.84656e-06
5.84669e-06
5.84682e-06
5.84695e-06
5.84708e-06
5.8472e-06
5.84733e-06
5.84746e-06
5.84759e-06
5.84772e-06
5.84785e-06
5.84798e-06
5.8481e-06
5.84823e-06
5.84836e-06
5.84849e-06
5.84862e-06
5.84874e-06
5.84887e-06
5.849e-06
5.84914e-06
5.8413e-06
5.84133e-06
5.84136e-06
5.8414e-06
5.84144e-06
5.84148e-06
5.84152e-06
5.84156e-06
5.8416e-06
5.84164e-06
5.84168e-06
5.84172e-06
5.84175e-06
5.84179e-06
5.84183e-06
5.84187e-06
5.84191e-06
5.84194e-06
5.84198e-06
5.84202e-06
5.84205e-06
5.84209e-06
5.84212e-06
5.84216e-06
5.8422e-06
5.84224e-06
5.84228e-06
5.84232e-06
5.84236e-06
5.84241e-06
5.84246e-06
5.8425e-06
5.84255e-06
5.8426e-06
5.84266e-06
5.84271e-06
5.84277e-06
5.84282e-06
5.84288e-06
5.84294e-06
5.843e-06
5.84307e-06
5.84313e-06
5.8432e-06
5.84326e-06
5.84333e-06
5.8434e-06
5.84347e-06
5.84354e-06
5.84361e-06
5.84368e-06
5.84376e-06
5.84383e-06
5.84391e-06
5.84398e-06
5.84406e-06
5.84414e-06
5.84423e-06
5.84431e-06
5.84439e-06
5.84448e-06
5.84457e-06
5.84465e-06
5.84474e-06
5.84483e-06
5.84492e-06
5.84502e-06
5.84511e-06
5.8452e-06
5.84529e-06
5.84539e-06
5.84548e-06
5.84558e-06
5.84567e-06
5.84577e-06
5.84586e-06
5.84595e-06
5.84603e-06
5.84613e-06
5.84036e-06
5.84037e-06
5.84038e-06
5.84039e-06
5.8404e-06
5.84042e-06
5.84043e-06
5.84044e-06
5.84046e-06
5.84047e-06
5.84048e-06
5.8405e-06
5.84051e-06
5.84053e-06
5.84054e-06
5.84056e-06
5.84058e-06
5.84059e-06
5.84061e-06
5.84063e-06
5.84065e-06
5.84067e-06
5.84069e-06
5.84071e-06
5.84073e-06
5.84075e-06
5.84077e-06
5.84079e-06
5.84081e-06
5.84083e-06
5.84085e-06
5.84088e-06
5.8409e-06
5.84092e-06
5.84095e-06
5.84097e-06
5.841e-06
5.84102e-06
5.84105e-06
5.84107e-06
5.8411e-06
5.84113e-06
5.84115e-06
5.84118e-06
5.84121e-06
5.84123e-06
5.84126e-06
5.84128e-06
5.84131e-06
5.84133e-06
5.84135e-06
5.84137e-06
5.84139e-06
5.84141e-06
5.84143e-06
5.84144e-06
5.84146e-06
5.84147e-06
5.84148e-06
5.84149e-06
5.8415e-06
5.84151e-06
5.84152e-06
5.84152e-06
5.84153e-06
5.84153e-06
5.84153e-06
5.84153e-06
5.84153e-06
5.84152e-06
5.84152e-06
5.84152e-06
5.84151e-06
5.84152e-06
5.84152e-06
5.84153e-06
5.84154e-06
5.84155e-06
5.84157e-06
5.92551e-06
5.93809e-06
5.95138e-06
5.96582e-06
5.98132e-06
5.99793e-06
6.01564e-06
6.03397e-06
6.05283e-06
6.07227e-06
6.09222e-06
6.11257e-06
6.13319e-06
6.15396e-06
6.17477e-06
6.19553e-06
6.21614e-06
6.23653e-06
6.25661e-06
6.27633e-06
6.29561e-06
6.31444e-06
6.33263e-06
6.35085e-06
6.36596e-06
6.3921e-06
5.89272e-06
5.89724e-06
5.9025e-06
5.90837e-06
5.91478e-06
5.9217e-06
5.92909e-06
5.93688e-06
5.94515e-06
5.95387e-06
5.96301e-06
5.97251e-06
5.98235e-06
5.99247e-06
6.00282e-06
6.01336e-06
6.02403e-06
6.0348e-06
6.04561e-06
6.05643e-06
6.06722e-06
6.07797e-06
6.08855e-06
6.09941e-06
6.10847e-06
6.12471e-06
5.88589e-06
5.88862e-06
5.89143e-06
5.89438e-06
5.89752e-06
5.90085e-06
5.90439e-06
5.90815e-06
5.91212e-06
5.9163e-06
5.9207e-06
5.92531e-06
5.93013e-06
5.93514e-06
5.94033e-06
5.9457e-06
5.95123e-06
5.95691e-06
5.96272e-06
5.96865e-06
5.97469e-06
5.98083e-06
5.98699e-06
5.99353e-06
5.99885e-06
6.00948e-06
5.88309e-06
5.88577e-06
5.8885e-06
5.89132e-06
5.89423e-06
5.89725e-06
5.90038e-06
5.90361e-06
5.90695e-06
5.9104e-06
5.91397e-06
5.91765e-06
5.92145e-06
5.92536e-06
5.92939e-06
5.93354e-06
5.93781e-06
5.94219e-06
5.94669e-06
5.95129e-06
5.95601e-06
5.96084e-06
5.96571e-06
5.97094e-06
5.97522e-06
5.98373e-06
5.87986e-06
5.88242e-06
5.88506e-06
5.88781e-06
5.89066e-06
5.89362e-06
5.89668e-06
5.89985e-06
5.90312e-06
5.90649e-06
5.90995e-06
5.91351e-06
5.91717e-06
5.92091e-06
5.92474e-06
5.92867e-06
5.93268e-06
5.93677e-06
5.94095e-06
5.94521e-06
5.94954e-06
5.95397e-06
5.95841e-06
5.96316e-06
5.967e-06
5.97485e-06
5.87619e-06
5.87854e-06
5.88097e-06
5.88349e-06
5.8861e-06
5.88882e-06
5.89163e-06
5.89454e-06
5.89754e-06
5.90063e-06
5.9038e-06
5.90707e-06
5.91041e-06
5.91384e-06
5.91734e-06
5.92092e-06
5.92457e-06
5.9283e-06
5.93208e-06
5.93594e-06
5.93985e-06
5.94384e-06
5.94783e-06
5.95207e-06
5.95556e-06
5.96236e-06
5.8726e-06
5.87472e-06
5.8769e-06
5.87917e-06
5.88152e-06
5.88395e-06
5.88646e-06
5.88905e-06
5.89172e-06
5.89446e-06
5.89728e-06
5.90016e-06
5.90312e-06
5.90614e-06
5.90923e-06
5.91238e-06
5.91558e-06
5.91885e-06
5.92217e-06
5.92554e-06
5.92896e-06
5.93244e-06
5.93591e-06
5.93962e-06
5.94261e-06
5.94869e-06
5.86893e-06
5.87081e-06
5.87275e-06
5.87476e-06
5.87684e-06
5.87899e-06
5.8812e-06
5.88349e-06
5.88583e-06
5.88824e-06
5.89071e-06
5.89324e-06
5.89583e-06
5.89847e-06
5.90117e-06
5.90391e-06
5.90671e-06
5.90955e-06
5.91244e-06
5.91538e-06
5.91835e-06
5.92137e-06
5.92439e-06
5.9276e-06
5.93023e-06
5.93535e-06
5.86538e-06
5.86704e-06
5.86876e-06
5.87053e-06
5.87236e-06
5.87425e-06
5.87619e-06
5.87819e-06
5.88024e-06
5.88235e-06
5.8845e-06
5.88671e-06
5.88896e-06
5.89126e-06
5.8936e-06
5.89598e-06
5.8984e-06
5.90087e-06
5.90337e-06
5.9059e-06
5.90847e-06
5.91108e-06
5.91369e-06
5.91646e-06
5.91869e-06
5.92324e-06
5.86199e-06
5.86343e-06
5.86492e-06
5.86645e-06
5.86803e-06
5.86966e-06
5.87134e-06
5.87307e-06
5.87483e-06
5.87664e-06
5.8785e-06
5.88039e-06
5.88232e-06
5.88429e-06
5.8863e-06
5.88834e-06
5.89042e-06
5.89253e-06
5.89466e-06
5.89683e-06
5.89903e-06
5.90125e-06
5.90348e-06
5.90584e-06
5.90777e-06
5.91154e-06
5.85857e-06
5.85982e-06
5.8611e-06
5.86243e-06
5.86379e-06
5.86519e-06
5.86663e-06
5.86811e-06
5.86963e-06
5.87118e-06
5.87276e-06
5.87438e-06
5.87603e-06
5.87771e-06
5.87942e-06
5.88116e-06
5.88293e-06
5.88472e-06
5.88653e-06
5.88838e-06
5.89024e-06
5.89213e-06
5.89401e-06
5.89602e-06
5.89765e-06
5.90083e-06
5.85547e-06
5.85651e-06
5.85757e-06
5.85867e-06
5.8598e-06
5.86096e-06
5.86216e-06
5.86339e-06
5.86465e-06
5.86594e-06
5.86726e-06
5.8686e-06
5.86997e-06
5.87137e-06
5.87279e-06
5.87423e-06
5.8757e-06
5.87719e-06
5.8787e-06
5.88023e-06
5.88177e-06
5.88334e-06
5.88491e-06
5.88657e-06
5.88792e-06
5.89056e-06
5.85211e-06
5.85296e-06
5.85383e-06
5.85472e-06
5.85565e-06
5.8566e-06
5.85758e-06
5.85859e-06
5.85962e-06
5.86067e-06
5.86175e-06
5.86285e-06
5.86397e-06
5.86511e-06
5.86627e-06
5.86745e-06
5.86865e-06
5.86987e-06
5.8711e-06
5.87235e-06
5.87361e-06
5.87489e-06
5.87617e-06
5.87753e-06
5.87864e-06
5.88079e-06
5.84949e-06
5.85012e-06
5.85078e-06
5.85146e-06
5.85216e-06
5.85289e-06
5.85363e-06
5.85439e-06
5.85518e-06
5.85598e-06
5.85682e-06
5.85768e-06
5.85856e-06
5.85947e-06
5.86041e-06
5.86139e-06
5.86236e-06
5.8633e-06
5.86423e-06
5.86516e-06
5.8661e-06
5.86707e-06
5.86803e-06
5.86906e-06
5.86987e-06
5.87156e-06
5.84638e-06
5.84685e-06
5.84734e-06
5.84783e-06
5.84835e-06
5.84888e-06
5.84942e-06
5.84999e-06
5.85057e-06
5.85117e-06
5.85179e-06
5.85244e-06
5.8531e-06
5.85379e-06
5.8545e-06
5.85523e-06
5.85597e-06
5.85671e-06
5.85745e-06
5.8582e-06
5.85893e-06
5.85964e-06
5.86035e-06
5.86111e-06
5.86171e-06
5.86288e-06
5.84164e-06
5.8418e-06
5.84198e-06
5.84217e-06
5.84238e-06
5.84261e-06
5.84286e-06
5.84313e-06
5.84341e-06
5.84371e-06
5.84403e-06
5.84437e-06
5.84472e-06
5.84508e-06
5.84545e-06
5.84583e-06
5.84621e-06
5.84661e-06
5.847e-06
5.8474e-06
5.84779e-06
5.8482e-06
5.84861e-06
5.84906e-06
5.8494e-06
5.84992e-06
5.84155e-06
5.84466e-06
5.84779e-06
5.85091e-06
5.85404e-06
5.85716e-06
5.86028e-06
5.86343e-06
5.86638e-06
5.86975e-06
5.8415e-06
5.84452e-06
5.84755e-06
5.85057e-06
5.85361e-06
5.85663e-06
5.85967e-06
5.86266e-06
5.86573e-06
5.86864e-06
5.84143e-06
5.8443e-06
5.84717e-06
5.85005e-06
5.85293e-06
5.85581e-06
5.85869e-06
5.86159e-06
5.86441e-06
5.86742e-06
5.84134e-06
5.84401e-06
5.8467e-06
5.84938e-06
5.85207e-06
5.85477e-06
5.85746e-06
5.86016e-06
5.86283e-06
5.86558e-06
5.84123e-06
5.84369e-06
5.84616e-06
5.84863e-06
5.8511e-06
5.85358e-06
5.85605e-06
5.85854e-06
5.86097e-06
5.86356e-06
5.84112e-06
5.84335e-06
5.84559e-06
5.84783e-06
5.85007e-06
5.85231e-06
5.85455e-06
5.85681e-06
5.85903e-06
5.86134e-06
5.841e-06
5.843e-06
5.845e-06
5.84701e-06
5.84901e-06
5.85102e-06
5.85303e-06
5.85505e-06
5.85702e-06
5.85912e-06
5.84088e-06
5.84266e-06
5.84443e-06
5.8462e-06
5.84797e-06
5.84975e-06
5.85152e-06
5.8533e-06
5.85505e-06
5.85689e-06
5.84077e-06
5.84232e-06
5.84387e-06
5.84541e-06
5.84696e-06
5.84851e-06
5.85005e-06
5.85161e-06
5.85313e-06
5.85474e-06
5.84067e-06
5.842e-06
5.84333e-06
5.84466e-06
5.84599e-06
5.84732e-06
5.84865e-06
5.84999e-06
5.85129e-06
5.85267e-06
5.84056e-06
5.84169e-06
5.84281e-06
5.84394e-06
5.84506e-06
5.84619e-06
5.84731e-06
5.84844e-06
5.84954e-06
5.8507e-06
5.84046e-06
5.84139e-06
5.84232e-06
5.84325e-06
5.84417e-06
5.8451e-06
5.84603e-06
5.84696e-06
5.84786e-06
5.84883e-06
5.84037e-06
5.84111e-06
5.84185e-06
5.84258e-06
5.84332e-06
5.84405e-06
5.84479e-06
5.84553e-06
5.84625e-06
5.84701e-06
5.84027e-06
5.84082e-06
5.84137e-06
5.84192e-06
5.84247e-06
5.84302e-06
5.84357e-06
5.84412e-06
5.84466e-06
5.84523e-06
5.84017e-06
5.84052e-06
5.84087e-06
5.84123e-06
5.84158e-06
5.84193e-06
5.84228e-06
5.84263e-06
5.84298e-06
5.84334e-06
5.84006e-06
5.84018e-06
5.8403e-06
5.84043e-06
5.84054e-06
5.84063e-06
5.8407e-06
5.84074e-06
5.84079e-06
5.84083e-06
5.87156e-06
5.87195e-06
5.87226e-06
5.8725e-06
5.87269e-06
5.87281e-06
5.87289e-06
5.87294e-06
5.87297e-06
5.87297e-06
5.87296e-06
5.87292e-06
5.87287e-06
5.87281e-06
5.87273e-06
5.87264e-06
5.87254e-06
5.87244e-06
5.87233e-06
5.87221e-06
5.87208e-06
5.87196e-06
5.87181e-06
5.87166e-06
5.8715e-06
5.87133e-06
5.87117e-06
5.87099e-06
5.87082e-06
5.87064e-06
5.87047e-06
5.87029e-06
5.87012e-06
5.86995e-06
5.8698e-06
5.86966e-06
5.86956e-06
5.86949e-06
5.86947e-06
5.8695e-06
5.86965e-06
5.86991e-06
5.87032e-06
5.87107e-06
5.87182e-06
5.8724e-06
5.87309e-06
5.87327e-06
5.87312e-06
5.873e-06
5.87291e-06
5.87285e-06
5.87282e-06
5.87281e-06
5.87282e-06
5.87286e-06
5.87291e-06
5.87299e-06
5.87307e-06
5.87318e-06
5.87334e-06
5.87334e-06
5.87342e-06
5.87385e-06
5.87421e-06
5.87445e-06
5.87459e-06
5.87466e-06
5.87467e-06
5.87466e-06
5.87463e-06
5.87458e-06
5.87453e-06
5.87447e-06
5.87441e-06
5.87436e-06
5.87432e-06
5.87433e-06
5.87425e-06
5.87018e-06
5.8705e-06
5.87081e-06
5.87107e-06
5.87132e-06
5.87155e-06
5.87176e-06
5.87196e-06
5.87213e-06
5.8723e-06
5.87244e-06
5.87257e-06
5.87269e-06
5.87278e-06
5.87286e-06
5.87291e-06
5.87295e-06
5.87298e-06
5.87298e-06
5.87298e-06
5.87293e-06
5.87288e-06
5.87271e-06
5.87253e-06
5.87241e-06
5.8723e-06
5.87217e-06
5.87204e-06
5.87189e-06
5.87172e-06
5.87155e-06
5.87136e-06
5.87116e-06
5.87094e-06
5.87072e-06
5.87048e-06
5.87023e-06
5.86998e-06
5.8697e-06
5.86943e-06
5.86917e-06
5.86883e-06
5.86846e-06
5.86823e-06
5.86823e-06
5.86838e-06
5.8685e-06
5.86841e-06
5.86814e-06
5.86783e-06
5.8675e-06
5.86716e-06
5.86682e-06
5.86647e-06
5.86611e-06
5.86576e-06
5.8654e-06
5.86505e-06
5.8647e-06
5.86437e-06
5.86409e-06
5.86378e-06
5.86364e-06
5.8637e-06
5.86395e-06
5.86428e-06
5.86467e-06
5.86517e-06
5.86571e-06
5.86617e-06
5.86653e-06
5.86682e-06
5.86704e-06
5.86721e-06
5.86733e-06
5.8674e-06
5.86742e-06
5.8674e-06
5.86733e-06
5.86908e-06
5.86939e-06
5.86967e-06
5.86992e-06
5.87016e-06
5.87038e-06
5.87059e-06
5.87078e-06
5.87096e-06
5.87113e-06
5.87129e-06
5.87143e-06
5.87155e-06
5.87164e-06
5.87168e-06
5.87171e-06
5.87174e-06
5.87178e-06
5.87181e-06
5.87184e-06
5.87185e-06
5.87185e-06
5.87184e-06
5.87182e-06
5.87178e-06
5.87172e-06
5.87165e-06
5.87156e-06
5.87146e-06
5.87135e-06
5.87122e-06
5.87107e-06
5.8709e-06
5.87075e-06
5.87061e-06
5.87051e-06
5.87043e-06
5.8704e-06
5.87044e-06
5.87055e-06
5.87074e-06
5.87108e-06
5.87148e-06
5.87187e-06
5.87223e-06
5.87241e-06
5.87254e-06
5.87267e-06
5.87252e-06
5.87222e-06
5.87187e-06
5.87152e-06
5.87115e-06
5.87077e-06
5.87038e-06
5.86999e-06
5.86959e-06
5.86918e-06
5.86876e-06
5.86834e-06
5.86792e-06
5.86748e-06
5.86705e-06
5.86665e-06
5.86625e-06
5.86585e-06
5.86587e-06
5.86595e-06
5.86592e-06
5.8658e-06
5.86556e-06
5.86522e-06
5.86486e-06
5.86454e-06
5.86424e-06
5.86396e-06
5.86368e-06
5.86345e-06
5.86316e-06
5.86707e-06
5.86736e-06
5.86761e-06
5.86785e-06
5.86808e-06
5.86829e-06
5.86849e-06
5.86868e-06
5.86886e-06
5.86903e-06
5.86919e-06
5.8693e-06
5.86941e-06
5.86947e-06
5.86951e-06
5.86957e-06
5.86965e-06
5.86972e-06
5.86978e-06
5.86983e-06
5.86987e-06
5.86989e-06
5.86991e-06
5.86991e-06
5.8699e-06
5.86988e-06
5.86985e-06
5.8698e-06
5.86974e-06
5.86968e-06
5.8696e-06
5.8695e-06
5.8694e-06
5.86929e-06
5.86917e-06
5.86903e-06
5.86888e-06
5.86874e-06
5.86859e-06
5.86838e-06
5.86819e-06
5.86808e-06
5.86809e-06
5.86822e-06
5.86835e-06
5.86844e-06
5.86845e-06
5.86829e-06
5.86806e-06
5.86781e-06
5.86755e-06
5.86729e-06
5.86701e-06
5.86673e-06
5.86644e-06
5.86614e-06
5.86583e-06
5.86552e-06
5.8652e-06
5.86487e-06
5.86454e-06
5.86421e-06
5.86385e-06
5.86347e-06
5.86315e-06
5.86295e-06
5.86288e-06
5.8629e-06
5.86296e-06
5.86305e-06
5.86319e-06
5.86338e-06
5.86352e-06
5.8636e-06
5.86363e-06
5.86361e-06
5.86356e-06
5.86347e-06
5.86334e-06
5.86496e-06
5.86522e-06
5.86546e-06
5.86567e-06
5.86588e-06
5.86607e-06
5.86626e-06
5.86643e-06
5.8666e-06
5.86675e-06
5.8669e-06
5.86703e-06
5.86716e-06
5.86728e-06
5.86739e-06
5.86749e-06
5.86758e-06
5.86765e-06
5.86772e-06
5.86777e-06
5.86781e-06
5.86785e-06
5.86787e-06
5.86788e-06
5.86788e-06
5.86787e-06
5.86785e-06
5.86782e-06
5.86778e-06
5.86774e-06
5.86768e-06
5.86761e-06
5.86753e-06
5.86745e-06
5.86735e-06
5.86723e-06
5.86713e-06
5.86705e-06
5.86701e-06
5.86703e-06
5.8671e-06
5.86727e-06
5.86748e-06
5.86769e-06
5.86791e-06
5.868e-06
5.86805e-06
5.86814e-06
5.86809e-06
5.86789e-06
5.86766e-06
5.86741e-06
5.86716e-06
5.8669e-06
5.86663e-06
5.86635e-06
5.86608e-06
5.86579e-06
5.8655e-06
5.86521e-06
5.86491e-06
5.8646e-06
5.86429e-06
5.86398e-06
5.86364e-06
5.86332e-06
5.86305e-06
5.86266e-06
5.86231e-06
5.86223e-06
5.86224e-06
5.86217e-06
5.86203e-06
5.86183e-06
5.86155e-06
5.86122e-06
5.86089e-06
5.86055e-06
5.86018e-06
5.86259e-06
5.86283e-06
5.86304e-06
5.86324e-06
5.86342e-06
5.8636e-06
5.86377e-06
5.86393e-06
5.86409e-06
5.86423e-06
5.86437e-06
5.8645e-06
5.86462e-06
5.86473e-06
5.86483e-06
5.86493e-06
5.86501e-06
5.86509e-06
5.86516e-06
5.86522e-06
5.86527e-06
5.86531e-06
5.86534e-06
5.86537e-06
5.86538e-06
5.86539e-06
5.86539e-06
5.86538e-06
5.86536e-06
5.86534e-06
5.8653e-06
5.86526e-06
5.86521e-06
5.86515e-06
5.86508e-06
5.86501e-06
5.86493e-06
5.86484e-06
5.86475e-06
5.86465e-06
5.86451e-06
5.86441e-06
5.86437e-06
5.86442e-06
5.86447e-06
5.86451e-06
5.86449e-06
5.86436e-06
5.8642e-06
5.86403e-06
5.86385e-06