/*--------------------------------*- C++ -*----------------------------------*\
| =========                 |                                                 |
| \\      /  F ield         | OpenFOAM: The Open Source CFD Toolbox           |
|  \\    /   O peration     | Version:  2412                                  |
|   \\  /    A nd           | Website:  www.openfoam.com                      |
|    \\/     M anipulation  |                                                 |
\*---------------------------------------------------------------------------*/
FoamFile
{
    version     2.0;
    format      ascii;
    arch        "LSB;label=32;scalar=64";
    class       volScalarField;
    location    "1500";
    object      p;
}
// * * * * * * * * * * * * * * * * * * * * * * * * * * * * * * * * * * * * * //

dimensions      [0 2 -2 0 0 0 0];

internalField   nonuniform List<scalar> 
20428
(
0.80922
0.814996
0.830261
0.854449
0.886016
0.92402
0.967303
1.01336
1.05658
1.09125
0.812143
0.816511
0.828243
0.846732
0.870215
0.897232
0.926058
0.953755
0.974105
0.979345
0.809637
0.812833
0.821439
0.834914
0.851526
0.869627
0.887439
0.902225
0.91006
0.907261
0.803151
0.805339
0.811211
0.820363
0.831236
0.842214
0.851641
0.857208
0.855471
0.841969
0.793901
0.795248
0.798851
0.80446
0.81076
0.816268
0.819576
0.818856
0.812163
0.797513
0.782901
0.783576
0.785354
0.788137
0.79087
0.79227
0.791188
0.786241
0.775877
0.757738
0.770979
0.771126
0.771472
0.772049
0.772058
0.770425
0.76625
0.758522
0.746534
0.72929
0.758796
0.758527
0.757768
0.756652
0.754611
0.75077
0.74444
0.734903
0.721639
0.703329
0.746849
0.746266
0.74466
0.742255
0.738678
0.73323
0.725396
0.714692
0.701042
0.684001
0.735531
0.734708
0.732454
0.729065
0.724335
0.717715
0.708821
0.697344
0.683204
0.665666
0.725141
0.724132
0.721374
0.717221
0.711609
0.704108
0.694442
0.682424
0.668283
0.65195
0.715914
0.714753
0.711589
0.706832
0.700523
0.692321
0.682013
0.669517
0.654929
0.637724
0.708039
0.706743
0.703212
0.697954
0.691112
0.682386
0.671601
0.658727
0.644169
0.628198
0.701683
0.700264
0.696362
0.690585
0.683157
0.673823
0.662431
0.648988
0.633565
0.615616
0.697015
0.695379
0.691246
0.685274
0.677587
0.667912
0.656152
0.642303
0.626813
0.610237
0.694371
0.691843
0.686881
0.680295
0.672014
0.661703
0.649241
0.634543
0.617328
0.59661
1.09404
1.08703
1.07955
1.0742
1.0697
1.06418
1.05693
1.04822
1.03855
1.0281
1.01672
1.00419
0.990368
0.975289
0.959035
0.941666
0.923204
0.903655
0.883031
0.861351
0.838638
0.814913
0.790216
0.764608
0.738189
0.711076
0.683429
0.65534
0.626925
0.598363
0.569751
0.541188
0.512791
0.484696
0.45705
0.43
0.40369
0.37825
0.353797
0.330434
0.308255
0.287347
0.267795
0.249671
0.233038
0.217946
0.204432
0.192523
0.182231
0.173561
0.166507
0.161053
0.157176
0.154843
0.154017
0.154653
0.156706
0.160125
0.164862
0.170862
0.178072
0.186435
0.195892
0.206387
0.217863
0.230265
0.243543
0.257646
0.272533
0.288162
0.304499
0.321507
0.339152
0.357403
0.376267
0.395677
0.415883
0.436191
0.458264
0.957022
0.948057
0.940412
0.933885
0.927367
0.920255
0.912314
0.903585
0.894249
0.88437
0.873848
0.862592
0.85066
0.838199
0.825285
0.811877
0.797921
0.783409
0.768387
0.75293
0.737098
0.72097
0.70443
0.687099
0.669018
0.650327
0.631282
0.612478
0.594044
0.575794
0.557647
0.539638
0.521828
0.504261
0.486964
0.469991
0.45343
0.437379
0.421909
0.407054
0.392828
0.379249
0.36636
0.354217
0.342876
0.332381
0.322754
0.314002
0.306127
0.299129
0.293012
0.287783
0.283447
0.280005
0.277453
0.275778
0.274966
0.274998
0.275856
0.277519
0.279969
0.283186
0.287151
0.291841
0.297234
0.303308
0.310044
0.317423
0.325433
0.334059
0.343297
0.353142
0.363608
0.3747
0.386435
0.398757
0.411809
0.425016
0.439589
0.89599
0.889375
0.882449
0.876439
0.870857
0.864959
0.858422
0.851294
0.843731
0.835808
0.827507
0.818797
0.809685
0.800198
0.790347
0.780112
0.769473
0.758436
0.747036
0.735317
0.723313
0.711052
0.698551
0.685832
0.672924
0.659868
0.646705
0.633468
0.620193
0.606915
0.593686
0.580549
0.567545
0.554702
0.542054
0.529646
0.517523
0.505749
0.494336
0.48328
0.472629
0.462415
0.452677
0.443454
0.434781
0.426681
0.419167
0.412245
0.405922
0.400202
0.395095
0.39061
0.386755
0.383531
0.380937
0.378968
0.377616
0.37687
0.376719
0.377151
0.378153
0.379708
0.381801
0.384411
0.38752
0.391106
0.39515
0.399627
0.404517
0.40979
0.415421
0.421378
0.427633
0.434148
0.440915
0.447857
0.455082
0.462023
0.469845
0.821396
0.814907
0.808826
0.80311
0.797527
0.791876
0.785905
0.779503
0.772786
0.7659
0.758891
0.751712
0.744318
0.736708
0.728903
0.720926
0.712725
0.704207
0.695363
0.686245
0.676946
0.667461
0.65789
0.648395
0.638944
0.629485
0.620015
0.610557
0.601144
0.591794
0.582514
0.573306
0.56419
0.555194
0.54635
0.537685
0.529223
0.520983
0.512977
0.505216
0.497717
0.490497
0.483576
0.476972
0.470703
0.464782
0.459221
0.454026
0.449205
0.444761
0.440699
0.437023
0.433736
0.430842
0.428344
0.426243
0.424541
0.423236
0.422324
0.421801
0.421661
0.421896
0.422499
0.423463
0.42478
0.426441
0.42844
0.430767
0.433412
0.436365
0.439612
0.443139
0.446935
0.450978
0.455265
0.459737
0.464493
0.469103
0.474496
0.784821
0.780109
0.77501
0.770215
0.765744
0.761265
0.756506
0.751421
0.746113
0.740672
0.735105
0.729379
0.723478
0.717412
0.7112
0.70485
0.698368
0.691757
0.685027
0.678191
0.671266
0.664263
0.65719
0.650059
0.642883
0.635679
0.628463
0.62125
0.614051
0.606874
0.599727
0.592624
0.585583
0.578624
0.571776
0.565047
0.558494
0.552166
0.545959
0.539799
0.533763
0.527928
0.522317
0.516933
0.511783
0.506873
0.502209
0.497794
0.493634
0.489729
0.486086
0.482705
0.479592
0.47675
0.474183
0.47189
0.469873
0.468129
0.466656
0.465447
0.464499
0.463805
0.463361
0.46316
0.463198
0.463466
0.463959
0.464667
0.465584
0.466696
0.467997
0.469473
0.471117
0.472912
0.474857
0.47691
0.479156
0.481249
0.483971
0.741352
0.736936
0.732584
0.728289
0.724137
0.720083
0.715932
0.711564
0.707023
0.702368
0.697579
0.692625
0.687511
0.682277
0.676947
0.671513
0.666033
0.660557
0.655068
0.649549
0.643996
0.638409
0.632793
0.627159
0.621518
0.615881
0.610254
0.604645
0.59906
0.593505
0.587992
0.58253
0.577133
0.571811
0.566568
0.561411
0.556367
0.551418
0.546552
0.541801
0.537177
0.532685
0.528336
0.524134
0.520085
0.516194
0.512466
0.508902
0.505508
0.502286
0.499241
0.496373
0.493686
0.491182
0.488863
0.486728
0.484779
0.483011
0.481425
0.480019
0.478792
0.47774
0.476865
0.476162
0.47563
0.475264
0.475061
0.475013
0.475119
0.47537
0.475763
0.47629
0.476949
0.477727
0.47863
0.479623
0.480778
0.481821
0.483367
0.71816
0.714885
0.711209
0.707539
0.704087
0.700721
0.697238
0.69357
0.689776
0.685918
0.682009
0.678028
0.673968
0.669842
0.665662
0.661431
0.657149
0.65282
0.648448
0.64404
0.639598
0.635125
0.630624
0.626101
0.621565
0.617023
0.612481
0.607944
0.603419
0.598911
0.594426
0.58997
0.585551
0.58118
0.576873
0.572653
0.56853
0.564471
0.560435
0.556412
0.552437
0.548538
0.544744
0.541065
0.5375
0.534045
0.530702
0.527473
0.524359
0.521361
0.518483
0.515725
0.513088
0.510572
0.50818
0.50591
0.503764
0.50174
0.499841
0.498063
0.496408
0.494872
0.493455
0.492155
0.490968
0.489892
0.488924
0.488059
0.487294
0.486625
0.486049
0.485559
0.485155
0.484829
0.484583
0.484392
0.484315
0.48413
0.484344
0.690388
0.687341
0.684155
0.680793
0.677481
0.674261
0.670988
0.66758
0.664095
0.660594
0.657084
0.653544
0.649958
0.646328
0.642663
0.638964
0.635235
0.631477
0.627696
0.623896
0.620082
0.616254
0.612417
0.608574
0.604732
0.600897
0.597074
0.593267
0.58948
0.585714
0.581967
0.578241
0.574551
0.570899
0.567293
0.563754
0.560267
0.556797
0.55336
0.549984
0.546671
0.543423
0.540241
0.53713
0.534092
0.531129
0.528246
0.525441
0.522718
0.520077
0.517519
0.515044
0.512655
0.510351
0.508133
0.506001
0.503957
0.502
0.500132
0.498349
0.496654
0.495043
0.493516
0.49207
0.490706
0.489419
0.48821
0.487077
0.486016
0.485027
0.484107
0.483252
0.482463
0.481733
0.481066
0.480442
0.479908
0.479291
0.478983
0.674445
0.672006
0.669207
0.666311
0.663558
0.660899
0.658185
0.655361
0.652468
0.649552
0.646618
0.643649
0.640637
0.637589
0.634513
0.631412
0.628284
0.62513
0.621952
0.618756
0.615543
0.612316
0.609076
0.605825
0.602569
0.59931
0.59605
0.592792
0.589539
0.586294
0.583061
0.579843
0.576646
0.573474
0.570338
0.567249
0.564205
0.561193
0.558213
0.555256
0.552305
0.549357
0.546429
0.543534
0.54068
0.537875
0.535128
0.532444
0.529822
0.527258
0.524751
0.5223
0.519904
0.517564
0.51528
0.513051
0.51088
0.508764
0.506705
0.5047
0.50275
0.500854
0.49901
0.497218
0.495478
0.493786
0.492144
0.490548
0.488998
0.487492
0.486027
0.484602
0.483215
0.481861
0.480544
0.479247
0.478009
0.47669
0.475615
0.654219
0.651705
0.649144
0.646469
0.643824
0.641243
0.638644
0.635969
0.633238
0.630484
0.62772
0.624935
0.622126
0.619293
0.616442
0.613575
0.610692
0.607795
0.604884
0.601965
0.59904
0.596111
0.593177
0.59024
0.587304
0.584372
0.581445
0.578526
0.575617
0.572718
0.569832
0.566958
0.564102
0.561264
0.558446
0.555653
0.552893
0.550169
0.547464
0.544759
0.542068
0.539409
0.536789
0.534204
0.531655
0.529143
0.526668
0.524229
0.521829
0.519466
0.517143
0.514859
0.512616
0.510413
0.508251
0.50613
0.504051
0.502012
0.500015
0.498057
0.496141
0.494263
0.492425
0.490625
0.488864
0.487139
0.485451
0.483798
0.482179
0.480593
0.47904
0.477516
0.476022
0.474555
0.473119
0.471699
0.470328
0.468898
0.467653
0.643607
0.641605
0.639281
0.636848
0.634525
0.632282
0.630002
0.62764
0.625227
0.622803
0.620373
0.617927
0.615458
0.612968
0.610463
0.607942
0.605405
0.602849
0.600278
0.597694
0.595101
0.592499
0.58989
0.587273
0.584651
0.582027
0.579401
0.576775
0.574148
0.571524
0.568904
0.566288
0.56368
0.56108
0.558491
0.555912
0.553347
0.550797
0.548264
0.545752
0.543265
0.540804
0.538368
0.535951
0.533553
0.531174
0.528813
0.526461
0.52411
0.521758
0.519416
0.517087
0.514779
0.512493
0.510234
0.508003
0.505807
0.503644
0.501511
0.499403
0.49732
0.495259
0.493219
0.491199
0.489198
0.487215
0.485249
0.483299
0.481365
0.479444
0.477537
0.475642
0.473757
0.471881
0.470016
0.468151
0.46631
0.46441
0.462651
0.626595
0.624338
0.622142
0.619829
0.617502
0.615223
0.612943
0.610618
0.608258
0.605891
0.603522
0.601141
0.598743
0.596331
0.593911
0.591486
0.589056
0.586617
0.584172
0.581721
0.579265
0.576804
0.57434
0.571875
0.56941
0.566947
0.564488
0.562032
0.559582
0.557136
0.554694
0.552257
0.549829
0.547407
0.544994
0.542591
0.540201
0.537821
0.535453
0.533097
0.530756
0.528429
0.526121
0.523831
0.521566
0.519319
0.51708
0.514837
0.5126
0.51038
0.508183
0.506008
0.503854
0.50172
0.499605
0.497509
0.495433
0.493374
0.491334
0.489312
0.487308
0.485321
0.483351
0.481396
0.479458
0.477535
0.475627
0.473734
0.471856
0.46999
0.468139
0.466299
0.464472
0.462654
0.460849
0.459049
0.457271
0.455456
0.453744
0.620862
0.619041
0.616876
0.614643
0.612525
0.610455
0.608324
0.606122
0.60391
0.601723
0.599547
0.59735
0.595119
0.592862
0.590595
0.588326
0.586056
0.583779
0.581496
0.579205
0.576908
0.574605
0.572297
0.569983
0.567665
0.565343
0.563021
0.5607
0.55838
0.556062
0.553746
0.551433
0.549123
0.546816
0.544514
0.542216
0.539924
0.537636
0.535355
0.533079
0.53081
0.528547
0.526293
0.524046
0.521807
0.519575
0.517351
0.515134
0.512925
0.510723
0.508531
0.50635
0.504183
0.502029
0.499891
0.497765
0.495651
0.493543
0.491442
0.489344
0.487242
0.48513
0.483002
0.480859
0.478708
0.476554
0.474404
0.472265
0.470139
0.468019
0.465902
0.463783
0.461662
0.459534
0.457401
0.455255
0.453112
0.450923
0.448807
0.60337
0.601132
0.599159
0.597061
0.594891
0.59275
0.59062
0.588467
0.586302
0.584143
0.581988
0.579822
0.577642
0.575455
0.573271
0.571093
0.568916
0.566737
0.564553
0.562363
0.560169
0.557972
0.555774
0.553577
0.551381
0.549185
0.546991
0.544797
0.542605
0.540412
0.538222
0.536033
0.533848
0.531667
0.529491
0.527321
0.525156
0.522996
0.520841
0.518688
0.516541
0.5144
0.512267
0.510139
0.508021
0.505911
0.503808
0.501714
0.499628
0.497547
0.495476
0.493412
0.491356
0.489306
0.487268
0.485237
0.483214
0.481199
0.479193
0.477194
0.475201
0.473215
0.471234
0.469259
0.467289
0.465323
0.463363
0.461408
0.459457
0.45751
0.455566
0.453624
0.451685
0.449745
0.447808
0.445868
0.443935
0.441977
0.44007
0.603439
0.601545
0.599329
0.59706
0.594869
0.592696
0.590479
0.58823
0.585989
0.583774
0.581578
0.579387
0.577196
0.575003
0.572812
0.570624
0.568436
0.566248
0.564059
0.561869
0.559681
0.557495
0.555318
0.553148
0.550985
0.548826
0.546669
0.54451
0.542352
0.540195
0.538041
0.535891
0.533746
0.531603
0.529463
0.527324
0.525188
0.523056
0.520929
0.518806
0.516687
0.514571
0.512458
0.510348
0.508243
0.506144
0.50405
0.501962
0.499878
0.497797
0.49572
0.493644
0.491572
0.489502
0.487435
0.48537
0.483307
0.481245
0.479185
0.477124
0.475061
0.472995
0.470926
0.468851
0.466772
0.464685
0.462592
0.460491
0.458381
0.456258
0.454123
0.451972
0.449806
0.447624
0.445425
0.443196
0.440949
0.438661
0.436397
0.582061
0.579875
0.578134
0.576141
0.574055
0.572058
0.57007
0.568014
0.565928
0.563881
0.561882
0.559898
0.557899
0.555879
0.553848
0.551815
0.549784
0.547753
0.545725
0.543697
0.54167
0.539645
0.537619
0.535592
0.533563
0.531529
0.529493
0.527456
0.52542
0.523384
0.521352
0.51932
0.51729
0.515261
0.513235
0.511208
0.509183
0.507158
0.505134
0.503111
0.501093
0.49908
0.497077
0.495083
0.4931
0.491126
0.48916
0.4872
0.485247
0.483299
0.481356
0.479418
0.477485
0.475557
0.473636
0.471721
0.469814
0.467914
0.46602
0.464132
0.46225
0.460373
0.4585
0.456631
0.454767
0.452907
0.451051
0.449199
0.447351
0.445505
0.443663
0.441821
0.43998
0.438137
0.436294
0.434447
0.4326
0.430738
0.428887
0.505752
0.405405
0.278149
0.211084
0.185986
0.162853
0.126215
0.0829809
0.0441081
0.0137761
-0.00937792
-0.0275355
-0.041861
-0.0529802
-0.0614378
-0.0675488
-0.071381
-0.0729505
-0.0723681
-0.0697563
-0.0650725
-0.058253
-0.0488192
-0.0374671
-0.0220709
-0.0106671
0.468753
0.400105
0.303514
0.238863
0.205801
0.180001
0.147357
0.109789
0.074588
0.0454778
0.0219625
0.00266634
-0.0130734
-0.0256201
-0.0354508
-0.0429471
-0.0482151
-0.0512499
-0.0521363
-0.0510465
-0.0480443
-0.0431801
-0.036152
-0.0276736
-0.0161916
-0.00761844
0.47573
0.410372
0.328047
0.26914
0.23337
0.204197
0.171642
0.136546
0.103621
0.0753562
0.0514877
0.031181
0.0141302
0.000199309
-0.0109666
-0.0197718
-0.0264145
-0.0309329
-0.033388
-0.0339344
-0.032693
-0.0297932
-0.0250888
-0.019193
-0.0110239
-0.00534487
0.475322
0.412163
0.33958
0.287042
0.251566
0.220796
0.188435
0.155382
0.124612
0.0975437
0.073949
0.0533619
0.0357144
0.0210111
0.00899475
-0.000725508
-0.00840699
-0.0141312
-0.0179427
-0.0199624
-0.0203242
-0.0192113
-0.016561
-0.0129672
-0.00745945
-0.00408441
0.477792
0.418889
0.354117
0.305811
0.270664
0.239139
0.207015
0.175236
0.145826
0.119562
0.0961863
0.075412
0.0572808
0.0418601
0.0289678
0.0182631
0.00948455
0.00252767
-0.00265063
-0.00614934
-0.00810246
-0.00871414
-0.00798935
-0.00647436
-0.00341759
-0.00232463
0.475639
0.421307
0.362315
0.317209
0.282981
0.251759
0.220334
0.189673
0.161371
0.135892
0.11292
0.0922188
0.0738641
0.0579606
0.0443948
0.0328946
0.0232246
0.0152698
0.00897547
0.00424551
0.000946741
-0.00113517
-0.00203888
-0.00228575
-0.00115009
-0.00164625
0.47377
0.42407
0.37056
0.328388
0.295208
0.264525
0.233826
0.204096
0.176689
0.151874
0.129281
0.108682
0.0901726
0.0738828
0.0597478
0.0475507
0.0370844
0.0282304
0.0209211
0.0150571
0.0105072
0.00706186
0.00465795
0.00281783
0.00208381
-0.000155931
0.468497
0.423284
0.374441
0.334849
0.302739
0.272797
0.243023
0.214321
0.187814
0.163647
0.141442
0.121005
0.102448
0.085912
0.071361
0.0586142
0.0474882
0.037868
0.0296802
0.0228263
0.017182
0.0125467
0.00885456
0.00565577
0.0035034
0.000157092
0.463765
0.422699
0.37826
0.341088
0.310116
0.281067
0.252292
0.224561
0.198819
0.175171
0.153283
0.132998
0.114429
0.097718
0.0828416
0.0696446
0.0579612
0.0476804
0.0387272
0.0310064
0.0244011
0.0187243
0.0139028
0.00952633
0.00599952
0.00135981
0.456632
0.419363
0.378654
0.343702
0.313903
0.285793
0.258003
0.231193
0.206179
0.18306
0.161546
0.141497
0.123016
0.106238
0.091154
0.0776296
0.0655138
0.0546996
0.045112
0.0366603
0.0292368
0.022667
0.0168838
0.0115021
0.006943
0.00152289
0.450748
0.416834
0.379603
0.346685
0.317996
0.290791
0.26393
0.237973
0.213636
0.191013
0.169853
0.15003
0.13164
0.114813
0.0995519
0.0857444
0.0732536
0.0619771
0.0518407
0.0427568
0.0346245
0.0272816
0.0206592
0.014407
0.00883081
0.00245042
0.443054
0.412122
0.377729
0.346618
0.319018
0.292722
0.266759
0.241607
0.217904
0.195755
0.174951
0.155377
0.137122
0.120309
0.104953
0.0909595
0.0782067
0.0665963
0.056054
0.0464943
0.0378205
0.0298783
0.0226027
0.0156646
0.00938442
0.00250271
0.437299
0.408913
0.377116
0.347561
0.320896
0.295404
0.270238
0.245788
0.222638
0.200918
0.18045
0.161126
0.143014
0.12622
0.110773
0.0966059
0.0836111
0.0716984
0.0607919
0.050805
0.0416445
0.0331645
0.0252989
0.0177446
0.0107411
0.00317196
0.430047
0.403901
0.374082
0.345803
0.319942
0.29514
0.270652
0.246806
0.224132
0.202783
0.18263
0.163582
0.145697
0.129068
0.113711
0.0995543
0.0864968
0.0744494
0.0633451
0.0531061
0.0436469
0.0348274
0.0265788
0.0186149
0.0111604
0.00326482
0.425426
0.401024
0.372983
0.345855
0.320756
0.296565
0.272606
0.249188
0.226819
0.205671
0.185662
0.166726
0.148924
0.132354
0.117018
0.102826
0.0896637
0.0774426
0.0661057
0.0555865
0.0458068
0.0366308
0.0280029
0.0196511
0.0117768
0.00354712
0.419859
0.396145
0.36864
0.342153
0.317685
0.294095
0.270708
0.247823
0.225949
0.20526
0.185672
0.167116
0.14965
0.133368
0.118275
0.104278
0.0912596
0.0791284
0.0678252
0.0572794
0.04742
0.0380894
0.0292814
0.0206607
0.0124501
0.0039018
0.116274
0.114792
0.110329
0.101742
0.0876573
0.0654237
0.0300428
-0.025528
-0.112536
-0.240915
0.0250213
0.0219192
0.0133331
-0.00170245
-0.0244038
-0.0573357
-0.105487
-0.174037
-0.276695
-0.418299
-0.0624729
-0.0667205
-0.0783085
-0.0979689
-0.126559
-0.166389
-0.221639
-0.296777
-0.399834
-0.530569
-0.144792
-0.14979
-0.163397
-0.186079
-0.218262
-0.261792
-0.320032
-0.396243
-0.496725
-0.623241
-0.221001
-0.226433
-0.241213
-0.265547
-0.299436
-0.344236
-0.40248
-0.476434
-0.569609
-0.680406
-0.290552
-0.296168
-0.31144
-0.33635
-0.370529
-0.414861
-0.471183
-0.540891
-0.626551
-0.727386
-0.353207
-0.35882
-0.37408
-0.398784
-0.432265
-0.475009
-0.528271
-0.592835
-0.66994
-0.75746
-0.408956
-0.41444
-0.429343
-0.453321
-0.48548
-0.525978
-0.575621
-0.63472
-0.704045
-0.78203
-0.457948
-0.463228
-0.477569
-0.500521
-0.531026
-0.568988
-0.614864
-0.668653
-0.730485
-0.798295
-0.500428
-0.50547
-0.519162
-0.540968
-0.569715
-0.605111
-0.647354
-0.696216
-0.751652
-0.812105
-0.536682
-0.541489
-0.554539
-0.575228
-0.602288
-0.635284
-0.674218
-0.718722
-0.768393
-0.821354
-0.566994
-0.5716
-0.584101
-0.603813
-0.629386
-0.66028
-0.696375
-0.737197
-0.782374
-0.830629
-0.591607
-0.596077
-0.60822
-0.627205
-0.651573
-0.68071
-0.71441
-0.752159
-0.793248
-0.835823
-0.610674
-0.615113
-0.627157
-0.645798
-0.669484
-0.697537
-0.729694
-0.76539
-0.804187
-0.845212
-0.624187
-0.628994
-0.641118
-0.659352
-0.682266
-0.709225
-0.739932
-0.773849
-0.810044
-0.846595
-0.631552
-0.638246
-0.652036
-0.671306
-0.694798
-0.721967
-0.752549
-0.786047
-0.822171
-0.860261
-0.327898
-0.356262
-0.384585
-0.414217
-0.447324
-0.483481
-0.521039
-0.558989
-0.597688
-0.637951
-0.680276
-0.724807
-0.771482
-0.820138
-0.87056
-0.922543
-0.975935
-1.03065
-1.08667
-1.14398
-1.20257
-1.26242
-1.32347
-1.38553
-1.44842
-1.51196
-1.57586
-1.63993
-1.70399
-1.76785
-1.83128
-1.8941
-1.95612
-2.01716
-2.07702
-2.13547
-2.19231
-2.24735
-2.30042
-2.35138
-2.40008
-2.44641
-2.49027
-2.53159
-2.57024
-2.60604
-2.63885
-2.6685
-2.69491
-2.71819
-2.73837
-2.75549
-2.76957
-2.78068
-2.78889
-2.79428
-2.79694
-2.79697
-2.79443
-2.78943
-2.78212
-2.7727
-2.7614
-2.74835
-2.73359
-2.71721
-2.69933
-2.6801
-2.65966
-2.63814
-2.61576
-2.59275
-2.56929
-2.5455
-2.52155
-2.49756
-2.47391
-2.45024
-2.42773
-0.565806
-0.603536
-0.632617
-0.659342
-0.689928
-0.723134
-0.756688
-0.79025
-0.824515
-0.859926
-0.896414
-0.933729
-0.971697
-1.01028
-1.04948
-1.08932
-1.12978
-1.17088
-1.21254
-1.25494
-1.29688
-1.33833
-1.37989
-1.42421
-1.47198
-1.51827
-1.56167
-1.60402
-1.64683
-1.69035
-1.734
-1.77712
-1.81933
-1.86051
-1.90073
-1.94009
-1.97864
-2.01632
-2.05299
-2.08849
-2.12263
-2.15531
-2.18642
-2.21591
-2.2438
-2.27012
-2.29485
-2.31806
-2.3397
-2.3596
-2.37773
-2.39406
-2.4086
-2.42136
-2.43235
-2.44157
-2.44902
-2.45473
-2.45874
-2.46105
-2.46166
-2.46056
-2.45772
-2.45327
-2.44735
-2.44012
-2.43167
-2.42195
-2.41096
-2.39871
-2.38526
-2.37066
-2.35497
-2.33824
-2.32055
-2.30192
-2.28256
-2.26197
-2.24128
-0.625993
-0.650924
-0.673612
-0.695703
-0.719766
-0.745564
-0.771914
-0.798433
-0.825405
-0.853085
-0.881497
-0.910427
-0.939499
-0.968693
-0.998675
-1.03009
-1.06271
-1.09592
-1.12911
-1.16202
-1.19497
-1.22833
-1.26215
-1.29626
-1.3304
-1.36433
-1.39799
-1.43145
-1.46479
-1.498
-1.53099
-1.56365
-1.59588
-1.62763
-1.65882
-1.6894
-1.71929
-1.74841
-1.77667
-1.80398
-1.8303
-1.85562
-1.8799
-1.90311
-1.92518
-1.94609
-1.96584
-1.98439
-2.00174
-2.01784
-2.03268
-2.04626
-2.05857
-2.06961
-2.07937
-2.08786
-2.09509
-2.10108
-2.10588
-2.10952
-2.11203
-2.1134
-2.11363
-2.11276
-2.11085
-2.108
-2.10428
-2.09973
-2.09443
-2.08842
-2.08175
-2.07447
-2.06658
-2.05814
-2.0492
-2.03976
-2.02997
-2.01945
-2.00896
-0.725472
-0.751253
-0.773428
-0.794097
-0.816036
-0.839285
-0.862893
-0.886508
-0.910268
-0.934439
-0.958493
-0.982344
-1.0065
-1.03138
-1.05749
-1.08425
-1.11078
-1.13667
-1.16216
-1.18781
-1.2139
-1.24034
-1.26687
-1.2933
-1.31949
-1.34539
-1.37101
-1.39636
-1.42148
-1.44641
-1.47116
-1.49569
-1.51993
-1.54378
-1.56715
-1.58996
-1.61215
-1.63367
-1.65453
-1.67473
-1.69425
-1.71311
-1.73129
-1.74879
-1.76558
-1.78165
-1.79698
-1.81154
-1.82532
-1.83828
-1.85039
-1.86163
-1.87199
-1.88147
-1.89007
-1.89778
-1.90462
-1.91058
-1.91567
-1.91992
-1.92335
-1.92594
-1.9277
-1.9286
-1.92865
-1.92783
-1.92616
-1.92372
-1.9206
-1.91686
-1.91246
-1.90739
-1.90165
-1.89523
-1.88817
-1.88047
-1.87225
-1.86319
-1.85404
-0.755763
-0.774589
-0.791826
-0.808396
-0.825881
-0.844215
-0.862708
-0.881138
-0.899693
-0.918555
-0.937731
-0.957142
-0.976728
-0.996456
-1.0163
-1.03625
-1.0563
-1.07646
-1.09675
-1.11717
-1.13768
-1.15823
-1.17873
-1.19915
-1.21947
-1.23967
-1.25974
-1.27968
-1.29948
-1.31911
-1.33854
-1.35774
-1.37667
-1.39528
-1.41354
-1.43143
-1.44891
-1.46598
-1.48261
-1.49882
-1.51456
-1.52981
-1.54457
-1.55879
-1.57248
-1.58562
-1.59821
-1.61023
-1.62167
-1.6325
-1.64272
-1.65231
-1.66126
-1.66959
-1.6773
-1.68438
-1.69084
-1.69668
-1.70191
-1.70653
-1.71054
-1.71396
-1.71678
-1.719
-1.72061
-1.72163
-1.72207
-1.72197
-1.72136
-1.72027
-1.7187
-1.7167
-1.71427
-1.71143
-1.70822
-1.70462
-1.70072
-1.69625
-1.69172
-0.800667
-0.818415
-0.834056
-0.848869
-0.864435
-0.88071
-0.897085
-0.913358
-0.929678
-0.946187
-0.962883
-0.979686
-0.996534
-1.01341
-1.03033
-1.04728
-1.06426
-1.08125
-1.09823
-1.11518
-1.13208
-1.14892
-1.16568
-1.18236
-1.19894
-1.2154
-1.23171
-1.24787
-1.26385
-1.27962
-1.29517
-1.31048
-1.32553
-1.34032
-1.35484
-1.36907
-1.38297
-1.39654
-1.40973
-1.42255
-1.43498
-1.44702
-1.45866
-1.4699
-1.48072
-1.49113
-1.50112
-1.51068
-1.51983
-1.52854
-1.53681
-1.54462
-1.55196
-1.55882
-1.5652
-1.5711
-1.5765
-1.5814
-1.58582
-1.58973
-1.59317
-1.59613
-1.59861
-1.60062
-1.60216
-1.60321
-1.60377
-1.60386
-1.60346
-1.60258
-1.60126
-1.59954
-1.5974
-1.59486
-1.59194
-1.58861
-1.58495
-1.58072
-1.57641
-0.814494
-0.828168
-0.840707
-0.852822
-0.865528
-0.878722
-0.89191
-0.904949
-0.917994
-0.931191
-0.944545
-0.95798
-0.97143
-0.984873
-0.998311
-1.01175
-1.0252
-1.03865
-1.0521
-1.06553
-1.07894
-1.09232
-1.10563
-1.11888
-1.13204
-1.14511
-1.15806
-1.17088
-1.18356
-1.1961
-1.20847
-1.22068
-1.2327
-1.24454
-1.25618
-1.26761
-1.27882
-1.28978
-1.30049
-1.31092
-1.32106
-1.3309
-1.34042
-1.34963
-1.35854
-1.36714
-1.37545
-1.38345
-1.39114
-1.39851
-1.40555
-1.41225
-1.41861
-1.4246
-1.43024
-1.43552
-1.44043
-1.44499
-1.44918
-1.45302
-1.45651
-1.45964
-1.46242
-1.46485
-1.46693
-1.46866
-1.47002
-1.47104
-1.47172
-1.47207
-1.4721
-1.47181
-1.47122
-1.47034
-1.46918
-1.46774
-1.46608
-1.464
-1.46187
-0.83488
-0.847372
-0.858607
-0.869362
-0.88058
-0.892206
-0.90384
-0.915352
-0.926848
-0.938439
-0.950125
-0.96185
-0.973564
-0.985246
-0.996896
-1.00852
-1.02012
-1.0317
-1.04325
-1.05475
-1.0662
-1.07759
-1.08889
-1.10011
-1.11122
-1.12222
-1.1331
-1.14386
-1.15449
-1.16498
-1.17533
-1.18553
-1.19556
-1.20541
-1.21507
-1.22454
-1.2338
-1.24285
-1.25168
-1.26026
-1.26859
-1.27665
-1.28443
-1.29195
-1.29922
-1.30626
-1.31307
-1.31962
-1.32591
-1.33193
-1.33767
-1.34313
-1.3483
-1.35318
-1.35777
-1.36207
-1.36606
-1.36976
-1.37315
-1.37623
-1.379
-1.38147
-1.38363
-1.3855
-1.38707
-1.38833
-1.3893
-1.38995
-1.39031
-1.39036
-1.39009
-1.38952
-1.38867
-1.38757
-1.3862
-1.38456
-1.38269
-1.38042
-1.37808
-0.840866
-0.850883
-0.860153
-0.869127
-0.878465
-0.888112
-0.897736
-0.907222
-0.916662
-0.926157
-0.93572
-0.945307
-0.954877
-0.964413
-0.973914
-0.983384
-0.992823
-1.00223
-1.0116
-1.02093
-1.03021
-1.03943
-1.04858
-1.05767
-1.06667
-1.07559
-1.08442
-1.09315
-1.10178
-1.1103
-1.1187
-1.12698
-1.13512
-1.14312
-1.15097
-1.15868
-1.16622
-1.17361
-1.18083
-1.18789
-1.19476
-1.20146
-1.20796
-1.21427
-1.22037
-1.22627
-1.23196
-1.23745
-1.24274
-1.24782
-1.25269
-1.25734
-1.26178
-1.26599
-1.26998
-1.27374
-1.27727
-1.28057
-1.28364
-1.28647
-1.28907
-1.29145
-1.29359
-1.29551
-1.2972
-1.29866
-1.29988
-1.30087
-1.30162
-1.30213
-1.3024
-1.30246
-1.3023
-1.30194
-1.30138
-1.30063
-1.29971
-1.2985
-1.29724
-0.851304
-0.860412
-0.868716
-0.876697
-0.884953
-0.893465
-0.901979
-0.910396
-0.918768
-0.927162
-0.935584
-0.944007
-0.952405
-0.960766
-0.969091
-0.977383
-0.985636
-0.99385
-1.00202
-1.01013
-1.01819
-1.02618
-1.0341
-1.04194
-1.04971
-1.05738
-1.06496
-1.07244
-1.07982
-1.08709
-1.09424
-1.10128
-1.1082
-1.11499
-1.12166
-1.12818
-1.13457
-1.14081
-1.14691
-1.15285
-1.15863
-1.16425
-1.16969
-1.17497
-1.18006
-1.18496
-1.18967
-1.19418
-1.19853
-1.20271
-1.2067
-1.21051
-1.21413
-1.21756
-1.22079
-1.22382
-1.22664
-1.22927
-1.23169
-1.23391
-1.23592
-1.23772
-1.23932
-1.24071
-1.24189
-1.24287
-1.24364
-1.2442
-1.24454
-1.24468
-1.24461
-1.24434
-1.24388
-1.24321
-1.24235
-1.24129
-1.24005
-1.23853
-1.23695
-0.853127
-0.860571
-0.867607
-0.874436
-0.881472
-0.888711
-0.895944
-0.903079
-0.910155
-0.917233
-0.924325
-0.931412
-0.938469
-0.94549
-0.952473
-0.959422
-0.966333
-0.973206
-0.980035
-0.986817
-0.993548
-1.00022
-1.00684
-1.01339
-1.01987
-1.02627
-1.0326
-1.03884
-1.045
-1.05107
-1.05705
-1.06293
-1.06871
-1.07438
-1.07995
-1.0854
-1.09074
-1.09596
-1.10105
-1.10602
-1.11087
-1.11558
-1.12015
-1.12459
-1.12888
-1.13304
-1.13705
-1.14091
-1.14463
-1.14819
-1.1516
-1.15485
-1.15795
-1.16089
-1.16367
-1.16629
-1.16875
-1.17104
-1.17317
-1.17514
-1.17694
-1.17857
-1.18003
-1.18132
-1.18245
-1.1834
-1.18419
-1.1848
-1.18523
-1.1855
-1.18561
-1.18556
-1.18535
-1.185
-1.18448
-1.18381
-1.183
-1.18196
-1.18086
-0.861446
-0.868433
-0.874782
-0.880885
-0.887164
-0.893608
-0.900044
-0.9064
-0.912707
-0.919008
-0.92531
-0.931596
-0.937846
-0.94405
-0.950205
-0.956314
-0.962373
-0.968383
-0.974342
-0.980248
-0.986099
-0.991892
-0.997624
-1.00329
-1.00889
-1.01442
-1.01987
-1.02524
-1.03052
-1.03572
-1.04083
-1.04584
-1.05076
-1.05559
-1.06031
-1.06493
-1.06944
-1.07384
-1.07813
-1.08231
-1.08637
-1.09032
-1.09414
-1.09784
-1.10141
-1.10486
-1.10817
-1.11135
-1.11441
-1.11732
-1.1201
-1.12274
-1.12523
-1.12759
-1.1298
-1.13187
-1.1338
-1.13558
-1.13721
-1.1387
-1.14004
-1.14123
-1.14227
-1.14315
-1.14388
-1.14446
-1.14489
-1.14516
-1.14528
-1.14525
-1.14507
-1.14474
-1.14425
-1.14362
-1.14283
-1.1419
-1.14083
-1.13955
-1.13821
-0.859481
-0.86502
-0.870445
-0.875988
-0.881756
-0.887628
-0.893411
-0.899023
-0.904531
-0.910025
-0.915543
-0.921074
-0.926593
-0.932076
-0.93751
-0.942888
-0.948211
-0.953479
-0.958696
-0.963864
-0.968985
-0.974059
-0.979083
-0.984057
-0.988976
-0.993834
-0.998624
-1.00334
-1.00798
-1.01254
-1.01701
-1.02139
-1.02568
-1.02989
-1.034
-1.03802
-1.04194
-1.04577
-1.04951
-1.05314
-1.05668
-1.06011
-1.06344
-1.06666
-1.06978
-1.07279
-1.07568
-1.07847
-1.08113
-1.08368
-1.0861
-1.0884
-1.09058
-1.09263
-1.09456
-1.09636
-1.09804
-1.09959
-1.10101
-1.1023
-1.10346
-1.10449
-1.10539
-1.10615
-1.10678
-1.10728
-1.10764
-1.10786
-1.10795
-1.1079
-1.10772
-1.1074
-1.10694
-1.10635
-1.10562
-1.10476
-1.10377
-1.10261
-1.10138
-0.871922
-0.877559
-0.88249
-0.887252
-0.892158
-0.897152
-0.902113
-0.907023
-0.911918
-0.916819
-0.921712
-0.926571
-0.931371
-0.936108
-0.94078
-0.945395
-0.949954
-0.954463
-0.95892
-0.963326
-0.96768
-0.971978
-0.976218
-0.9804
-0.984522
-0.988585
-0.992588
-0.996531
-1.00041
-1.00423
-1.00797
-1.01164
-1.01523
-1.01873
-1.02215
-1.02548
-1.02871
-1.03186
-1.03492
-1.03789
-1.04077
-1.04356
-1.04625
-1.04886
-1.05138
-1.0538
-1.05612
-1.05835
-1.06047
-1.06249
-1.06441
-1.06623
-1.06793
-1.06953
-1.07102
-1.0724
-1.07366
-1.07481
-1.07585
-1.07677
-1.07759
-1.07829
-1.07888
-1.07936
-1.07972
-1.07997
-1.0801
-1.08011
-1.08001
-1.07979
-1.07945
-1.07899
-1.07842
-1.07772
-1.07691
-1.07597
-1.07492
-1.07372
-1.07245
-0.864623
-0.869539
-0.8748
-0.879835
-0.884731
-0.889655
-0.894596
-0.899481
-0.904283
-0.909017
-0.913691
-0.918263
-0.922711
-0.927071
-0.931387
-0.935688
-0.939974
-0.944235
-0.948453
-0.952679
-0.956958
-0.961238
-0.965457
-0.969582
-0.973573
-0.977403
-0.981097
-0.984699
-0.988241
-0.991743
-0.995207
-0.998627
-1.00199
-1.00528
-1.00849
-1.01161
-1.01464
-1.01758
-1.02042
-1.02317
-1.02584
-1.02842
-1.03091
-1.03333
-1.03565
-1.03789
-1.04004
-1.0421
-1.04407
-1.04593
-1.0477
-1.04937
-1.05094
-1.0524
-1.05376
-1.05501
-1.05615
-1.05718
-1.0581
-1.05891
-1.05962
-1.06021
-1.0607
-1.06108
-1.06135
-1.0615
-1.06155
-1.06148
-1.06129
-1.06098
-1.06054
-1.05998
-1.05929
-1.05847
-1.0575
-1.0564
-1.05516
-1.05376
-1.05224
-0.884643
-0.889312
-0.893253