/*--------------------------------*- C++ -*----------------------------------*\
| =========                 |                                                 |
| \\      /  F ield         | OpenFOAM: The Open Source CFD Toolbox           |
|  \\    /   O peration     | Version:  2412                                  |
|   \\  /    A nd           | Website:  www.openfoam.com                      |
|    \\/     M anipulation  |                                                 |
\*---------------------------------------------------------------------------*/
FoamFile
{
    version     2.0;
    format      ascii;
    arch        "LSB;label=32;scalar=64";
    class       surfaceScalarField;
    location    "1500";
    object      phi;
}
// * * * * * * * * * * * * * * * * * * * * * * * * * * * * * * * * * * * * * //

dimensions      [0 3 -1 0 0 0 0];

oriented        oriented;

internalField   nonuniform List<scalar> 
40472
(
4.68674
-0.000319892
0.00107611
4.68455
-0.000949514
0.00314529
4.68088
-0.00102726
0.00469257
4.67578
-0.000131958
0.005239
4.66931
0.00220243
0.0042649
4.6617
0.00653582
0.00107553
4.65335
0.0135139
-0.00516957
4.6452
0.0240017
-0.0158503
4.63813
0.0385737
-0.0315039
0.059354
4.63446
-0.0556871
4.68693
0.000253016
4.68523
0.000747786
4.68243
0.00177101
4.67862
0.00367785
4.67397
0.00685652
4.66877
0.0117343
4.66353
0.0187543
4.65912
0.0284063
4.65694
0.0407627
0.0558785
4.66041
4.68708
0.000675986
4.68582
0.00200168
4.68378
0.00381006
4.68108
0.00638156
4.67791
0.010026
4.6746
0.0150501
4.6716
0.0217464
4.66964
0.0303657
4.66936
0.0410505
0.0538517
4.67138
4.68721
0.000969138
4.68634
0.0028682
4.68495
0.00519559
4.68318
0.00815797
4.68121
0.0119939
4.67934
0.0169184
4.67798
0.0231081
4.67768
0.030668
4.67922
0.0395046
0.0490414
4.68403
4.68732
0.00115182
4.68677
0.00341439
4.68592
0.00604664
4.68489
0.00919238
4.68385
0.0130309
4.68306
0.017706
4.68285
0.0233206
4.68362
0.0298944
4.68571
0.0374144
0.0455392
4.68921
4.6874
0.00124744
4.68712
0.00370173
4.68669
0.00647096
4.68624
0.00964642
4.68591
0.0133604
4.68591
0.0177082
4.68649
0.0227416
4.68794
0.0284379
4.69067
0.0346878
0.0409444
4.69526
4.68747
0.00127324
4.68739
0.00378622
4.6873
0.00656266
4.68729
0.00965577
4.68749
0.0131623
4.68805
0.0171428
4.68917
0.0216207
4.69106
0.0265537
4.69384
0.0319026
0.03736
4.69743
4.68753
0.00124797
4.6876
0.00371143
4.68777
0.00639758
4.68809
0.00932884
4.68868
0.0125755
4.68965
0.0161759
4.69113
0.0201368
4.69328
0.024408
4.69626
0.0289137
0.0332426
4.70038
4.68757
0.00118158
4.68776
0.00351598
4.68812
0.0060375
4.6887
0.00874944
4.68957
0.0117029
4.69083
0.0149213
4.69256
0.0184045
4.69486
0.0221058
4.69777
0.026008
0.0299056
4.70111
4.6876
0.00108429
4.68789
0.00322697
4.6884
0.00552833
4.68916
0.00797999
4.69025
0.0106191
4.69171
0.0134614
4.69361
0.0165026
4.69601
0.0197056
4.69901
0.0230127
0.0261493
4.70276
4.68762
0.000962724
4.68798
0.0028649
4.68861
0.00490331
4.68952
0.00706445
4.69077
0.00937569
4.69238
0.0118472
4.69441
0.0144771
4.69688
0.0172367
4.69975
0.0201343
0.0230943
4.70281
4.68764
0.000821385
4.68806
0.00244371
4.68878
0.00418609
4.68981
0.00603331
4.69118
0.00800442
4.69292
0.0101089
4.69505
0.012347
4.69758
0.0147031
4.70059
0.0171289
0.0194314
4.70425
4.68766
0.000662382
4.68813
0.00196888
4.68893
0.00339163
4.69005
0.00491039
4.69152
0.00653491
4.69336
0.00827392
4.69557
0.0101343
4.69816
0.0121101
4.70104
0.01425
0.0166309
4.70384
4.68767
0.000487631
4.6882
0.00144056
4.68908
0.00251882
4.6903
0.00368898
4.69188
0.00495448
4.69383
0.00632606
4.69615
0.00780926
4.69885
0.0094125
4.70201
0.0110889
0.0127185
4.70592
4.68771
0.000280121
4.68827
0.000878374
4.68918
0.00160838
4.69045
0.0024196
4.69209
0.00331748
4.6941
0.00431196
4.6965
0.00540956
4.69929
0.00662751
4.70231
0.00806496
0.0100357
4.70499
4.68784
4.68851
4.68955
4.69094
4.6927
4.69484
4.69739
4.70039
4.70401
4.70863
4.63176
-0.0355262
0.0382269
4.62936
-0.0340086
0.036415
4.62716
-0.0324706
0.0346684
4.62516
-0.0309098
0.0329088
4.62339
-0.0293347
0.0311094
4.62186
-0.027753
0.0292809
4.62059
-0.0261675
0.0274355
4.61959
-0.0245781
0.0255791
4.61886
-0.0229847
0.0237137
4.61841
-0.0213884
0.0218407
4.61824
-0.0197911
0.0199619
4.61835
-0.0181945
0.0180797
4.61875
-0.0166003
0.0161964
4.61945
-0.0150098
0.0143143
4.62044
-0.0134241
0.0124358
4.62172
-0.0118447
0.0105633
4.62329
-0.0102729
0.00869955
4.62516
-0.00871077
0.00684731
4.62731
-0.00715993
0.00500974
4.62974
-0.00562216
0.00319002
4.63245
-0.00409913
0.0013911
4.63542
-0.00259239
-0.000383957
4.63866
-0.00110296
-0.00213172
4.64214
0.000369581
-0.0038489
4.64584
0.00182501
-0.00553301
4.64976
0.00326246
-0.00718164
4.65388
0.00468043
-0.00879254
4.65816
0.00607647
-0.0103636
4.66261
0.0074492
-0.0118928
4.66719
0.00879862
-0.0133787
4.67188
0.0101249
-0.0148203
4.67667
0.0114279
-0.0162171
4.68153
0.0127079
-0.017569
4.68644
0.0139651
-0.0188765
4.69138
0.0152
-0.0201403
4.69633
0.0164131
-0.0213617
4.70127
0.0176052
-0.0225425
4.70618
0.0187771
-0.0236847
4.71104
0.0199299
-0.024791
4.71584
0.0210648
-0.025864
4.72056
0.0221833
-0.0269069
4.7252
0.0232868
-0.027923
4.72974
0.0243767
-0.028916
4.73417
0.0254547
-0.0298893
4.7385
0.0265224
-0.0308467
4.74271
0.0275813
-0.031792
4.7468
0.0286333
-0.0327288
4.75078
0.0296799
-0.0336607
4.75465
0.0307229
-0.0345913
4.75841
0.0317638
-0.0355238
4.76207
0.0328042
-0.0364614
4.76563
0.0338455
-0.0374069
4.7691
0.0348891
-0.0383629
4.7725
0.0359362
-0.0393319
4.77583
0.0369881
-0.0403159
4.7791
0.0380459
-0.0413167
4.78232
0.0391104
-0.0423359
4.78551
0.0401828
-0.0433747
4.78869
0.0412637
-0.0444341
4.79185
0.0423534
-0.0455146
4.79501
0.0434516
-0.0466166
4.79819
0.0445603
-0.0477406
4.8014
0.0456793
-0.0488865
4.80464
0.0468091
-0.0500541
4.80794
0.0479497
-0.051243
4.81129
0.0491011
-0.0524525
4.81471
0.0502634
-0.0536818
4.8182
0.0514364
-0.0549301
4.82178
0.0526196
-0.0561961
4.82544
0.0538129
-0.0574776
4.8292
0.0550157
-0.0587755
4.83306
0.0562281
-0.060088
4.83703
0.057448
-0.0614117
4.8411
0.0586755
-0.0627444
4.84527
0.0599095
-0.064083
4.84955
0.061149
-0.0654266
4.85392
0.0623931
-0.0667641
4.8584
0.06364
-0.0681263
0.0648763
4.86288
-0.0693541
4.65819
-0.0333068
4.65613
-0.0319425
4.65422
-0.0305651
4.65249
-0.0291816
4.65095
-0.0277943
4.6496
-0.0264034
4.64844
-0.0250097
4.64748
-0.0236143
4.64671
-0.022218
4.64615
-0.0208216
4.64578
-0.0194258
4.64562
-0.0180312
4.64566
-0.0166386
4.6459
-0.0152486
4.64633
-0.013862
4.64697
-0.0124798
4.6478
-0.011103
4.64882
-0.00973236
4.65003
-0.00836844
4.65142
-0.00701165
4.65298
-0.00566248
4.65471
-0.00432142
4.6566
-0.00298907
4.65864
-0.00166752
4.66082
-0.000358961
4.66315
0.00093599
4.66561
0.00221719
4.6682
0.0034858
4.67091
0.00474244
4.67372
0.00598625
4.67663
0.00721661
4.67962
0.0084333
4.68269
0.00963631
4.68583
0.0108258
4.68903
0.0120019
4.69228
0.013165
4.69557
0.0143156
4.69889
0.0154537
4.70224
0.0165804
4.70561
0.0176967
4.70899
0.0188028
4.71238
0.0198993
4.71577
0.0209872
4.71916
0.0220673
4.72254
0.0231405
4.72591
0.0242078
4.72928
0.02527
4.73263
0.0263282
4.73597
0.0273831
4.7393
0.0284356
4.74261
0.0294868
4.74592
0.0305373
4.74922
0.0315882
4.75252
0.0326401
4.75581
0.0336938
4.75911
0.03475
4.76241
0.0358094
4.76572
0.0368725
4.76905
0.03794
4.77239
0.0390123
4.77575
0.0400896
4.77914
0.0411726
4.78255
0.042262
4.78601
0.0433581
4.78949
0.044461
4.79302
0.0455713
4.7966
0.0466891
4.80022
0.0478147
4.80389
0.0489483
4.80761
0.0500902
4.81139
0.0512407
4.81522
0.0523993
4.8191
0.0535661
4.82303
0.0547415
4.82702
0.0559255
4.83105
0.0571179
4.83512
0.05832
4.83923
0.0595296
0.0607449
4.84336
4.66915
-0.031071
4.66705
-0.0298458
4.6651
-0.0286172
4.6633
-0.0273847
4.66166
-0.0261493
4.66017
-0.0249124
4.65883
-0.0236748
4.65766
-0.0224369
4.65664
-0.0211991
4.65578
-0.0199619
4.65508
-0.0187258
4.65454
-0.0174911
4.65416
-0.0162583
4.65394
-0.0150281
4.65387
-0.0138008
4.65397
-0.0125773
4.65423
-0.0113578
4.65464
-0.0101424
4.6552
-0.008931
4.65591
-0.00772358
4.65677
-0.00652118
4.65777
-0.00532378
4.65891
-0.00413134
4.66019
-0.00294507
4.6616
-0.00176607
4.66313
-0.000594711
4.66478
0.000568629
4.66654
0.00172372
4.66841
0.00287084
4.67039
0.00401026
4.67246
0.00514215
4.67463
0.00626653
4.67688
0.00738339
4.67921
0.00849279
4.68162
0.00959483
4.68409
0.0106896
4.68663
0.0117774
4.68923
0.0128586
4.69187
0.0139332
4.69457
0.0150011
4.69731
0.0160633
4.70009
0.0171201
4.7029
0.018172
4.70575
0.0192194
4.70863
0.0202625
4.71153
0.0213018
4.71446
0.0223379
4.71742
0.023371
4.7204
0.0244018
4.72341
0.0254307
4.72644
0.0264581
4.72949
0.0274845
4.73257
0.0285103
4.73567
0.0295361
4.7388
0.0305621
4.74196
0.0315887
4.74515
0.0326164
4.74838
0.0336455
4.75164
0.0346764
4.75495
0.0357093
4.75829
0.0367446
4.76168
0.0377827
4.76512
0.0388236
4.76861
0.0398678
4.77216
0.0409154
4.77576
0.0419666
4.77943
0.0430216
4.78316
0.0440806
4.78697
0.0451436
4.79085
0.0462108
4.7948
0.0472824
4.79884
0.0483583
4.80297
0.0494385
4.80719
0.0505233
4.8115
0.0516128
4.81591
0.0527068
4.82043
0.0538064
4.82505
0.0549084
0.05603
4.82976
4.68186
-0.0288926
4.6798
-0.0277936
4.67788
-0.0266898
4.67608
-0.0255843
4.6744
-0.0244779
4.67286
-0.0233707
4.67145
-0.0222631
4.67017
-0.0211557
4.66902
-0.0200484
4.668
-0.0189415
4.66711
-0.0178352
4.66634
-0.0167297
4.66571
-0.0156253
4.66521
-0.0145223
4.66483
-0.0134207
4.66457
-0.0123206
4.66443
-0.011222
4.66442
-0.0101258
4.66452
-0.00903283
4.66474
-0.00794353
4.66507
-0.00685804
4.66552
-0.00577629
4.66609
-0.00469925
4.66677
-0.00362618
4.66756
-0.00255682
4.66846
-0.00149149
4.66946
-0.000430521
4.67056
0.000625959
4.67175
0.00167788
4.67303
0.00272514
4.67441
0.00376767
4.67587
0.00480544
4.67741
0.00583845
4.67904
0.00686676
4.68074
0.00789044
4.68252
0.0089096
4.68437
0.00992421
4.6863
0.0109339
4.68829
0.0119389
4.69035
0.0129406
4.69248
0.0139393
4.69466
0.0149345
4.69691
0.0159261
4.69921
0.0169145
4.70157
0.0178999
4.70399
0.0188826
4.70647
0.0198629
4.709
0.0208411
4.71158
0.0218175
4.71422
0.0227923
4.71691
0.0237659
4.71965
0.0247384
4.72245
0.0257103
4.72531
0.0266817
4.72822
0.027653
4.73118
0.0286244
4.7342
0.0295961
4.73728
0.0305685
4.74041
0.0315416
4.74361
0.0325159
4.74686
0.0334914
4.75017
0.0344684
4.75355
0.0354471
4.75699
0.0364276
4.76049
0.03741
4.76407
0.0383946
4.7677
0.0393814
4.77141
0.0403706
4.7752
0.0413623
4.77905
0.0423565
4.78298
0.0433533
4.78698
0.0443528
4.79107
0.0453549
4.79523
0.0463597
4.79948
0.0473672
4.80381
0.0483774
4.80822
0.0493907
4.81273
0.0504042
0.0514336
4.81732
4.68692
-0.0265994
4.68474
-0.0256112
4.68267
-0.0246218
4.68072
-0.023631
4.67888
-0.0226392
4.67716
-0.0216471
4.67555
-0.020655
4.67406
-0.019663
4.67268
-0.0186714
4.67142
-0.0176804
4.67027
-0.0166901
4.66924
-0.0157002
4.66833
-0.0147106
4.66753
-0.0137217
4.66684
-0.012734
4.66627
-0.011747
4.66581
-0.010761
4.66546
-0.00977662
4.66522
-0.0087942
4.66509
-0.00781401
4.66507
-0.00683618
4.66516
-0.00586082
4.66534
-0.00488817
4.66564
-0.00391829
4.66603
-0.00295112
4.66653
-0.00198666
4.66712
-0.00102497
4.66782
-6.60681e-05
4.6686
0.000889989
4.66949
0.0018432
4.67046
0.00279355
4.67153
0.00374106
4.67268
0.00468575
4.67392
0.00562763
4.67524
0.00656672
4.67665
0.00750313
4.67814
0.00843668
4.6797
0.00936805
4.68135
0.0102974
4.68306
0.0112238
4.68486
0.0121471
4.68672
0.0130681
4.68866
0.0139872
4.69067
0.0149045
4.69275
0.01582
4.6949
0.0167338
4.69712
0.017646
4.6994
0.0185569
4.70176
0.0194664
4.70417
0.0203748
4.70666
0.0212823
4.70921
0.0221889
4.71182
0.0230948
4.71451
0.0240002
4.71725
0.0249052
4.72007
0.0258099
4.72295
0.0267146
4.7259
0.0276194
4.72892
0.0285243
4.732
0.0294295
4.73516
0.0303351
4.73839
0.0312413
4.74169
0.0321482
4.74506
0.0330557
4.74851
0.0339642
4.75203
0.0348736
4.75562
0.035784
4.7593
0.0366956
4.76305
0.0376083
4.76689
0.0385222
4.7708
0.0394374
4.7748
0.040354
4.77889
0.0412719
4.78305
0.0421912
4.78731
0.0431119
4.79165
0.0440339
4.79609
0.0449578
4.80061
0.0458811
0.0468162
4.80523
4.69296
-0.0242951
4.69076
-0.0234113
4.68866
-0.0225249
4.68667
-0.0216377
4.68478
-0.02075
4.683
-0.0198617
4.68131
-0.018973
4.67973
-0.0180841
4.67826
-0.017195
4.67688
-0.0163056
4.67561
-0.0154163
4.67444
-0.0145275
4.67337
-0.0136395
4.6724
-0.0127525
4.67153
-0.011866
4.67076
-0.0109808
4.6701
-0.0100969
4.66954
-0.00921406
4.66908
-0.00833211
4.66871
-0.00745126
4.66845
-0.00657174
4.66828
-0.00569368
4.66821
-0.00481708
4.66824
-0.0039421
4.66835
-0.0030687
4.66856
-0.00219697
4.66887
-0.00132702
4.66926
-0.000458811
4.66974
0.000407622
4.67031
0.00127228
4.67097
0.00213503
4.67172
0.00299606
4.67255
0.00385522
4.67346
0.00471252
4.67446
0.0055681
4.67555
0.00642172
4.67671
0.0072734
4.67795
0.00812275
4.67928
0.00897021
4.68069
0.00981635
4.68218
0.0106613
4.68374
0.0115053
4.68538
0.0123478
4.68709
0.0131889
4.68889
0.0140286
4.69075
0.014867
4.6927
0.0157042
4.69471
0.0165403
4.6968
0.0173755
4.69897
0.0182097
4.70121
0.0190432
4.70352
0.019876
4.70591
0.0207082
4.70837
0.0215399
4.7109
0.0223712
4.71351
0.0232021
4.71619
0.0240328
4.71895
0.0248633
4.72178
0.0256937
4.72469
0.0265241
4.72767
0.0273546
4.73072
0.0281852
4.73386
0.029016
4.73707
0.0298471
4.74035
0.0306785
4.74371
0.0315103
4.74716
0.0323426
4.75068
0.0331753
4.75428
0.0340085
4.75796
0.0348423
4.76172
0.0356767
4.76556
0.0365116
4.76948
0.0373471
4.77349
0.0381832
4.77759
0.03902
4.78176
0.0398574
4.78602
0.0406956
4.79037
0.0415331
0.0423785
4.79481
4.69502
-0.0218902
4.69271
-0.0211025
4.6905
-0.020314
4.68839
-0.0195244
4.68637
-0.0187339
4.68445
-0.0179431
4.68263
-0.0171522
4.68091
-0.0163608
4.67928
-0.0155691
4.67776
-0.0147775
4.67633
-0.0139859
4.67499
-0.0131946
4.67376
-0.0124036
4.67262
-0.0116132
4.67157
-0.0108232
4.67063
-0.010034
4.66977
-0.00924546
4.66902
-0.00845772
4.66836
-0.00767083
4.66779
-0.00688476
4.66732
-0.00609951
4.66694
-0.00531524
4.66665
-0.00453189
4.66646
-0.00374961
4.66636
-0.00296833
4.66635
-0.00218826
4.66643
-0.00140925
4.66661
-0.000631397
4.66687
0.000145195
4.66722
0.000920689
4.66766
0.00169499
4.66819
0.00246813
4.6688
0.00323999
4.6695
0.00401062
4.67029
0.00478021
4.67116
0.00554866
4.67212
0.0063156
4.67316
0.00708211
4.67428
0.00784818
4.67549
0.00861257
4.67677
0.0093753
4.67814
0.0101366
4.67959
0.0108967
4.68112
0.0116562
4.68274
0.012415
4.68443
0.013173
4.6862
0.0139303
4.68806
0.014687
4.68999
0.015443
4.692
0.0161983
4.69409
0.016953
4.69626
0.0177072
4.69851
0.0184608
4.70083
0.0192141
4.70323
0.0199668
4.70572
0.0207193
4.70828
0.0214713
4.71092
0.0222232
4.71364
0.0229747
4.71643
0.0237262
4.71931
0.0244774
4.72227
0.0252286
4.7253
0.0259797
4.72842
0.0267307
4.73162
0.0274817
4.73489
0.0282328
4.73825
0.0289838
4.74169
0.029735
4.74522
0.0304862
4.74882
0.0312375
4.75251
0.0319889
4.75628
0.0327405
4.76013
0.0334921
4.76407
0.0342439
4.7681
0.0349959
4.77221
0.0357479
4.7764
0.0365001
4.78068
0.0372518
0.0380084
4.78505
4.69796
-0.019466
4.69562
-0.0187703
4.69338
-0.0180722
4.69123
-0.017374
4.68917
-0.0166757
4.68721
-0.0159771
4.68533
-0.0152781
4.68355
-0.0145792
4.68186
-0.0138806
4.68027
-0.0131819
4.67877
-0.0124831
4.67736
-0.0117842
4.67604
-0.0110856
4.67481
-0.0103872
4.67368
-0.00968898
4.67263
-0.00899112
4.67168
-0.00829362
4.67082
-0.00759646
4.67005
-0.00689978
4.66937
-0.00620352
4.66878
-0.00550782
4.66827
-0.0048126
4.66786
-0.00411801
4.66753
-0.00342402
4.6673
-0.00273071
4.66715
-0.002038
4.66708
-0.00134601
4.66711
-0.000654707
4.66722
3.58335e-05
4.66741
0.000725663
4.66769
0.00141471
4.66806
0.00210295
4.6685
0.00279049
4.66904
0.00347723
4.66965
0.00416335
4.67035
0.00484858
4.67114
0.0055334
4.672
0.00621724
4.67295
0.00689947
4.67398
0.00758044
4.6751
0.00826055
4.67629
0.00894022
4.67757
0.00961947
4.67893
0.0102982
4.68037
0.0109764
4.68189
0.0116543
4.68348
0.0123316
4.68516
0.0130084
4.68692
0.0136844
4.68876
0.0143597
4.69068
0.0150346
4.69268
0.0157089
4.69475
0.0163828
4.69691
0.0170562
4.69915
0.0177292
4.70147
0.0184018
4.70386
0.019074
4.70634
0.0197459
4.7089
0.0204176
4.71154
0.0210888
4.71425
0.0217599
4.71705
0.0224307
4.71993
0.0231012
4.72289
0.0237715
4.72593
0.0244416
4.72905
0.0251116
4.73225
0.0257814
4.73554
0.026451
4.7389
0.0271205
4.74235
0.0277898
4.74588
0.028459
4.74949
0.029128
4.75319
0.029797
4.75696
0.0304657
4.76083
0.0311343
4.76477
0.0318029
4.7688
0.0324712
4.77291
0.0331391
0.0338096
4.77711
4.69861
-0.0169702
4.6962
-0.016363
4.69389
-0.0157547
4.69166
-0.015146
4.68952
-0.0145367
4.68747
-0.0139272
4.68551
-0.0133175
4.68364
-0.0127078
4.68185
-0.0120981
4.68016
-0.0114884
4.67856
-0.0108786
4.67704
-0.010269
4.67561
-0.00965924
4.67428
-0.00904967
4.67303
-0.00844028
4.67187
-0.00783101
4.6708
-0.00722189
4.66981
-0.00661312
4.66892
-0.00600461
4.66811
-0.00539629
4.66739
-0.0047884
4.66676
-0.00418086
4.66622
-0.00357369
4.66576
-0.00296697
4.66539
-0.00236063
4.66511
-0.00175483
4.66491
-0.00114944
4.6648
-0.00054459
4.66477
5.97752e-05
4.66484
0.000663548
4.66499
0.00126687
4.66522
0.00186959
4.66554
0.00247186
4.66594
0.00307342
4.66643
0.00367441
4.667
0.0042751
4.66766
0.00487558
4.6684
0.00547514
4.66923
0.00607394
4.67014
0.00667316
4.67112
0.00727241
4.67219
0.00787067
4.67335
0.00846797
4.67458
0.00906435
4.6759
0.00965983
4.6773
0.0102544
4.67878
0.0108481
4.68035
0.0114415
4.682
0.0120344
4.68373
0.0126271
4.68554
0.0132194
4.68744
0.0138115
4.68942
0.0144032
4.69148
0.0149947
4.69363
0.0155858
4.69585
0.0161767
4.69816
0.0167671
4.70055
0.0173573
4.70302
0.017947
4.70557
0.0185364
4.7082
0.0191256
4.71092
0.0197143
4.71372
0.0203027
4.7166
0.0208908
4.71956
0.0214786
4.72261
0.0220661
4.72574
0.0226533
4.72895
0.0232403
4.73224
0.0238269
4.73562
0.0244133
4.73908
0.0249993
4.74262
0.025585
4.74625
0.0261705
4.74996
0.0267556
4.75375
0.0273404
4.75763
0.0279249
4.76159
0.028509
4.76564
0.0290928
0.0296776
4.76977
4.70026
-0.0144651
4.69784
-0.0139451
4.69551
-0.0134231
4.69326
-0.0129007
4.6911
-0.0123782
4.68903
-0.0118554
4.68705
-0.0113324
4.68515
-0.0108092
4.68334
-0.0102858
4.68161
-0.00976228
4.67997
-0.00923877
4.67842
-0.00871514
4.67695
-0.00819149
4.67557
-0.00766783
4.67427
-0.00714424
4.67306
-0.00662065
4.67193
-0.00609717
4.6709
-0.00557374
4.66994
-0.00505054
4.66907
-0.00452744
4.66829
-0.00400457
4.66759
-0.00348189
4.66698
-0.00295943
4.66645
-0.00243725
4.666
-0.00191532
4.66564
-0.00139371
4.66536
-0.000872363
4.66517
-0.000351308
4.66506
0.000169347
4.66503
0.000689683
4.66509
0.00120964
4.66523
0.00172926
4.66545
0.00224853
4.66576
0.00276745
4.66615
0.00328585
4.66662
0.0038037
4.66717
0.00432127
4.66781
0.00483909
4.66853
0.00535722
4.66933
0.00587485
4.67021
0.00639156
4.67117
0.0069075
4.67221
0.00742279
4.67334
0.00793744
4.67455
0.00845131
4.67584
0.00896435
4.67721
0.0094766
4.67866
0.00998815
4.6802
0.0104994
4.68182
0.0110106
4.68351
0.0115217
4.68529
0.0120326
4.68715
0.0125434
4.68909
0.0130539
4.69112
0.0135642
4.69322
0.0140744
4.6954
0.014584
4.69766
0.0150932
4.70001
0.0156019
4.70244
0.0161102
4.70494
0.0166181
4.70753
0.0171255
4.7102
0.0176327
4.71295
0.0181395
4.71579
0.0186459
4.7187
0.0191519
4.7217
0.0196577
4.72477
0.020163
4.72793
0.0206681
4.73117
0.0211727
4.73449
0.021677
4.7379
0.0221809
4.74139
0.0226844
4.74495
0.0231875
4.7486
0.0236903
4.75234
0.0241927
4.75615
0.0246946
4.76005
0.0251963
0.0256977
4.76403
4.70026
-0.0119112
4.69779
-0.011475
4.6954
-0.0110384
4.6931
-0.0106012
4.69089
-0.0101635
4.68876
-0.00972549
4.68671
-0.00928735
4.68475
-0.00884898
4.68288
-0.00841045
4.68109
-0.00797174
4.67938
-0.0075329
4.67776
-0.00709391
4.67622
-0.00665496
4.67477
-0.00621591
4.6734
-0.00577688
4.67212
-0.00533779
4.67092
-0.00489881
4.66981
-0.00445987
4.66878
-0.00402094
4.66783
-0.00358212
4.66697
-0.0031435
4.66619
-0.00270489
4.6655
-0.00226652
4.66489
-0.0018283
4.66437
-0.0013903
4.66393
-0.000952488
4.66357
-0.000514928
4.6633
-7.76313e-05
4.66311
0.000359495
4.663
0.000796243
4.66298
0.00123281
4.66304
0.00166908
4.66318
0.00210505
4.66341
0.00254076
4.66372
0.00297602
4.66411
0.00341104
4.66458
0.00384577
4.66514
0.00428014
4.66579
0.00471418
4.66651
0.00514778
4.66732
0.00558111
4.66822
0.0060144
4.66919
0.00644755
4.67025
0.00688038
4.67139
0.00731266
4.67261
0.00774431
4.67391
0.00817592
4.67529
0.00860773
4.67675
0.00903952
4.67829
0.0094708
4.67991
0.00990129
4.68161
0.0103312
4.68339
0.0107604
4.68526
0.0111889
4.68721
0.0116167
4.68924
0.0120439
4.69135
0.0124706
4.69355
0.0128969
4.69583
0.0133228
4.69819
0.0137482
4.70063
0.0141733
4.70316
0.014598
4.70577
0.0150224
4.70846
0.0154464
4.71124
0.0158702
4.7141
0.0162937
4.71704
0.0167169
4.72006
0.0171397
4.72317
0.0175622
4.72636
0.0179842
4.72963
0.0184057
4.73298
0.0188268
4.73642
0.0192475
4.73994
0.0196677
4.74354
0.0200874
4.74723
0.0205066
4.751
0.0209253
4.75485
0.0213437
0.0217613
4.75878
4.7017
-0.00936158
4.69924
-0.00900915
4.69685
-0.00865468
4.69455
-0.00829979
4.69233
-0.00794496
4.6902
-0.00758978
4.68814
-0.00723424
4.68617
-0.00687849
4.68429
-0.00652261
4.68248
-0.00616658
4.68076
-0.00581039
4.67912
-0.00545413
4.67756
-0.00509761
4.67609
-0.00474108
4.67469
-0.00438447
4.67338
-0.00402783
4.67216
-0.00367121
4.67101
-0.00331458
4.66995
-0.00295795
4.66897
-0.00260149
4.66807
-0.00224492
4.66725
-0.0018886
4.66652
-0.00153223
4.66587
-0.00117599
4.6653
-0.000819951
4.66481
-0.000463971
4.6644
-0.000108224
4.66408
0.000247378
4.66383
0.000602724
4.66367
0.000958001
4.66359
0.00131295
4.66359
0.00166771
4.66367
0.00202218
4.66384
0.00237649
4.66408
0.0027305
4.66441
0.00308429
4.66482
0.00343774
4.66531
0.00379095
4.66588
0.00414379
4.66653
0.00449639
4.66726
0.00484868
4.66808
0.0052006
4.66897
0.00555229
4.66995
0.0059038
4.67101
0.0062555
4.67214
0.00660742
4.67336
0.00695932
4.67466
0.00731054
4.67603
0.00766107
4.67749
0.00801104
4.67903
0.00836077
4.68066
0.00871
4.68236
0.00905887
4.68414
0.00940717
4.686
0.00975489
4.68794
0.0101018
4.68997
0.0104483
4.69207
0.010794
4.69425
0.011139
4.69652
0.0114836
4.69886
0.0118272
4.70129
0.0121706
4.7038
0.0125137
4.70639
0.0128567
4.70906
0.0131997
4.71181
0.0135425
4.71464
0.0138852
4.71755
0.0142276
4.72055
0.0145693
4.72362
0.0149106
4.72678
0.0152514
4.73001
0.0155917
4.73333
0.0159314
4.73672
0.0162708
4.7402
0.0166096
4.74376
0.0169479
4.7474
0.0172857
4.75112
0.0176233
0.0179595
4.75492
4.70126
-0.00678358
4.69877
-0.00651195
4.69635
-0.00624044
4.69402
-0.00596832
4.69177
-0.00569549
4.6896
-0.00542239
4.68752
-0.00514898
4.68551
-0.00487543
4.68359
-0.00460144
4.68175
-0.00432731
4.68
-0.00405287
4.67832
-0.00377838
4.67673
-0.00350377
4.67522
-0.0032291
4.67378
-0.00295426
4.67244
-0.00267946
4.67117
-0.00240452
4.66998
-0.00212956
4.66888
-0.00185454
4.66786
-0.00157958
4.66692
-0.00130452
4.66606
-0.00102956
4.66528
-0.000754654
4.66459
-0.000479871
4.66397
-0.000205177
4.66344
6.93152e-05
4.66299
0.000343696
4.66262
0.000617904
4.66233
0.000891926
4.66212
0.0011658
4.66199
0.00143948
4.66195
0.00171293
4.66198
0.00198611
4.6621
0.00225914
4.6623
0.00253189
4.66258
0.00280438
4.66294
0.00307668
4.66338
0.00334867
4.66391
0.00362039
4.66451
0.00389187
4.6652
0.00416304
4.66596
0.00443388
4.66681
0.00470444
4.66774
0.00497483
4.66875
0.00524495
4.66984
0.0055148
4.67102
0.00578435
4.67227
0.00605337
4.67361
0.00632199
4.67503
0.00659014
4.67654
0.00685782
4.67812
0.007125
4.67979
0.00739176
4.68154
0.00765817
4.68337
0.00792429
4.68528
0.00819025
4.68727
0.00845591
4.68935
0.00872129
4.6915
0.00898639
4.69373
0.00925136
4.69604
0.00951603
4.69843
0.00978038
4.7009
0.010044
4.70345
0.0103067
4.70608
0.0105686
4.7088
0.0108298
4.71159
0.01109
4.71447
0.0113498
4.71743
0.0116091
4.72047
0.0118681
4.7236
0.0121264
4.7268
0.0123843
4.73009
0.0126416
4.73347
0.0128984
4.73692
0.0131544
4.74046
0.01341
4.74408
0.0136648
4.74778
0.0139194
0.0141723
4.75157
4.70335
-0.00421224
4.70086
-0.00402243
4.69845
-0.00383025
4.69612
-0.0036376
4.69387
-0.00344487
4.6917
-0.00325161
4.68961
-0.00305807
4.6876
-0.00286412
4.68566
-0.00267002
4.68381
-0.0024758
4.68204
-0.00228151
4.68035
-0.00208698
4.67874
-0.00189247
4.67721
-0.0016978
4.67576
-0.00150312
4.67439
-0.00130835
4.67309
-0.00111357
4.67188
-0.000918815
4.67075
-0.000724056
4.6697
-0.00052931
4.66873
-0.000334486
4.66784
-0.000139572
4.66703
5.51889e-05
4.6663
0.000249778
4.66565
0.000444305
4.66508
0.000638623
4.6646
0.000832784
4.66419
0.00102678
4.66386
0.00122066
4.66361
0.00141436
4.66344
0.00160782
4.66335
0.00180119
4.66334
0.00199426
4.66342
0.00218724
4.66357
0.0023799
4.6638
0.00257245
4.66411
0.00276473
4.6645
0.00295677
4.66498
0.00314864
4.66553
0.00334023
4.66616
0.00353159
4.66687
0.00372276
4.66766
0.00391361
4.66853
0.00410417
4.66948
0.00429446
4.67051
0.00448432
4.67162
0.00467392
4.67281
0.00486304
4.67408
0.00505188
4.67543
0.00524021
4.67686
0.00542819
4.67837
0.00561577
4.67996
0.00580292
4.68163
0.00598971
4.68338
0.00617616
4.68521
0.00636231
4.68711
0.00654804
4.6891
0.00673345
4.69117
0.00691859
4.69332
0.00710333
4.69555
0.0072877
4.69785
0.00747161
4.70024
0.00765495
4.70271
0.00783773
4.70526
0.00801992
4.70789
0.00820144
4.7106
0.0083824
4.71338
0.00856269
4.71625
0.00874253
4.7192
0.00892166
4.72222
0.00910029
4.72533
0.0092784
4.72851
0.00945601
4.73178
0.0096329
4.73513
0.00980916
4.73855
0.00998458
4.74206
0.0101594
4.74564
0.010334
0.0105066
4.74931
4.70246
-0.00168003
4.7
-0.00156008
4.69761
-0.00144298
4.6953
-0.00132617
4.69306
-0.00120918
4.6909
-0.00109227
4.68882
-0.000975475
4.68682
-0.000858601
4.68489
-0.000741821
4.68304
-0.000625128
4.68126
-0.000508485
4.67957
-0.000391981
4.67795
-0.000275463
4.67641
-0.000159102
4.67495
-4.2875e-05
4.67357
7.31928e-05
4.67227
0.000189142
4.67104
0.000304929
4.6699
0.000420561
4.66883
0.000535948
4.66785
0.000651174
4.66694
0.000766052
4.66612
0.000880896
4.66537
0.000995654
4.66471
0.00111025
4.66412
0.00122471
4.66361
0.00133907
4.66319
0.00145327
4.66284
0.00156725
4.66257
0.00168111
4.66239
0.00179484
4.66228
0.00190829
4.66225
0.00202162
4.6623
0.00213477
4.66244
0.00224776
4.66265
0.00236046
4.66294
0.00247303
4.66331
0.00258529
4.66376
0.00269745
4.66429
0.00280941
4.6649
0.0029212
4.66559
0.00303287
4.66636
0.00314419
4.66721
0.00325528
4.66814
0.00336588
4.66915
0.00347619
4.67024
0.00358607
4.6714
0.00369556
4.67265
0.00380459
4.67398
0.0039133
4.67539
0.00402152
4.67687
0.00412926
4.67844
0.00423659
4.68008
0.00434347
4.68181
0.00444982
4.68362
0.0045557
4.6855
0.00466113
4.68747
0.00476607
4.68952
0.00487039
4.69165
0.00497427
4.69386
0.0050775
4.69615
0.00518022
4.69852
0.00528233
4.70098
0.00538383
4.70351
0.00548463
4.70613
0.00558476
4.70883
0.00568421
4.71161
0.00578299
4.71447
0.00588095
4.71741
0.00597822
4.72044
0.00607467
4.72355
0.00617033
4.72674
0.00626517
4.73001
0.00635909
4.73337
0.00645234
4.73681
0.00654483
4.74033
0.00663628
4.74394
0.006727
0.00681603
4.74763
4.70605
4.70354
4.70112
4.69877
4.69649
4.6943
4.69218
4.69014
4.68818
4.6863
4.68449
4.68276
4.68111
4.67955
4.67805
4.67664
4.67531
4.67405
4.67288
4.67178
4.67077
4.66983
4.66897
4.66819
4.66749
4.66686
4.66632
4.66586
4.66547
4.66517
4.66494
4.66479
4.66472
4.66473
4.66482
4.66499
4.66524
4.66557
4.66597
4.66646
4.66702
4.66766
4.66838
4.66918
4.67006
4.67102
4.67206
4.67317
4.67437
4.67564
4.67699
4.67842
4.67993
4.68152
4.68318
4.68493
4.68675
4.68865
4.69063
4.69269
4.69483
4.69704
4.69933
4.70171
4.70416
4.70669
4.70929
4.71198
4.71474
4.71759
4.72051
4.72351
4.72659
4.72975
4.73298
4.7363
4.73969
4.74317
4.74672
4.88213
0.147351
-0.166601
4.90142
0.151822
-0.171112
4.91843
0.149092
-0.166097
4.9351
0.144578
-0.161257
4.95162
0.140483
-0.156995
4.96745
0.136008
-0.151841
4.98214
0.130835
-0.145524
4.99553
0.124973
-0.138371
5.00785
0.118392
-0.130706
5.01913
0.111605
-0.122888
5.0294
0.10479
-0.115056
5.03866
0.0980186
-0.107284
5.04696
0.0913489
-0.0996494
5.05435
0.084834
-0.0922252
5.06089
0.0785152
-0.0850549
5.06664
0.0724244
-0.0781664
5.07162
0.0665854
-0.0715731
5.07589
0.061013
-0.0652796
5.07946
0.0557163
-0.0592822
5.08233
0.0507037
-0.0535771
5.08451
0.045999
-0.0481787
5.08598
0.0416227
-0.0430896
5.08673
0.0376811
-0.0384387
5.08673
0.034098
-0.0340947
5.0862
0.0315662
-0.0310399
0.028247
-0.0269125
4.85545
0.135268
4.87017
0.137093
4.88411
0.135151
4.89711
0.131579
4.90979
0.127806
4.92198
0.123823
4.93343
0.119385
4.94411
0.114295
4.95385
0.108653
4.9627
0.102751
4.97072
0.0967645
4.97796
0.0907815
4.98445
0.0848587
4.99024
0.0790469
4.99536
0.073389
4.99987
0.0679189
5.00379
0.0626643
5.00716
0.057648
5.00998
0.052889
5.01228
0.0484049
5.01406
0.0442234
5.01531
0.040371
5.01606
0.0369313
5.0163
0.0338589
5.0162
0.0316654
0.0288328
4.84204
0.122994
4.85553
0.123605
4.86829
0.122385
4.88017
0.119706
4.89148
0.11649
4.90228
0.11302
4.9125
0.109173
4.92197
0.10482
4.93062
0.100006
4.93846
0.0949051
4.94555
0.0896749
4.95193
0.0844063
4.95763
0.0791587
4.96269
0.0739835
4.96716
0.0689252
4.97105
0.0640194
4.97442
0.0592957
4.97729
0.0547811
4.97968
0.050501
4.9816
0.0464793
4.98308
0.0427451
4.98413
0.039326
4.98477
0.0362897
4.98503
0.033599
4.98504
0.0316532
0.0291172
4.82907
0.111242
4.84109
0.111585
4.85285
0.110634
4.86393
0.10862
4.87441
0.106012
4.88437
0.103062
4.89378
0.0997613
4.90255
0.0960454
4.91062
0.0919375
4.91798
0.0875525
4.92464
0.0830131
4.93064
0.0784048
4.93601
0.0737872
4.94078
0.0692108
4.94499
0.0647198
4.94866
0.0603506
4.95182
0.0561338
4.9545
0.0520983
4.95673
0.0482723
4.95853
0.0446826
4.95991
0.0413589
4.96091
0.0383268
4.96156
0.0356438
4.96189
0.0332712
4.96197
0.0315682
0.0293213
4.81633
0.100137
4.82737
0.100553
4.83807
0.099932
4.84827
0.0984175
4.85794
0.0963428
4.8671
0.093896
4.87576
0.0911037
4.88386
0.0879458
4.89135
0.0844477
4.89821
0.0806912
4.90446
0.0767709
4.9101
0.0727621
4.91516
0.0687216
4.91968
0.0646976
4.92366
0.060733
4.92715
0.0568642
4.93016
0.0531224
4.93272
0.0495368
4.93486
0.0461358
4.93659
0.0429471
4.93795
0.0399992
4.93897
0.0373157
4.93966
0.0349448
4.94009
0.0328473
4.94033
0.0313239
0.0292683
4.80499
0.0899537
4.81501
0.0905335
4.82479
0.0901594
4.83415
0.0890554
4.84304
0.087454