/*--------------------------------*- C++ -*----------------------------------*\
| =========                 |                                                 |
| \\      /  F ield         | OpenFOAM: The Open Source CFD Toolbox           |
|  \\    /   O peration     | Version:  2412                                  |
|   \\  /    A nd           | Website:  www.openfoam.com                      |
|    \\/     M anipulation  |                                                 |
\*---------------------------------------------------------------------------*/
FoamFile
{
    version     2.0;
    format      ascii;
    arch        "LSB;label=32;scalar=64";
    class       volVectorField;
    location    "1500";
    object      U;
}
// * * * * * * * * * * * * * * * * * * * * * * * * * * * * * * * * * * * * * //

dimensions      [0 1 -1 0 0 0 0];

internalField   nonuniform List<vector> 
20428
(
(4.99971 -0.000700321 0)
(4.99841 -0.00198153 0)
(4.99534 -0.00273695 0)
(4.99057 -0.00250628 0)
(4.9843 -0.000797965 0)
(4.97672 0.00301698 0)
(4.96805 0.00968729 0)
(4.95907 0.0203362 0)
(4.9501 0.0355508 0)
(4.94525 0.0583241 0)
(4.99978 -3.66794e-05 0)
(4.99879 1.30939e-05 0)
(4.99643 0.000582019 0)
(4.99281 0.00209566 0)
(4.98818 0.00498928 0)
(4.98284 0.00976393 0)
(4.97709 0.0169797 0)
(4.97185 0.0272998 0)
(4.96743 0.0411282 0)
(4.96911 0.0593228 0)
(4.99984 0.000467498 0)
(4.99911 0.00149972 0)
(4.99738 0.0029918 0)
(4.99476 0.00531362 0)
(4.99152 0.00881819 0)
(4.98796 0.013872 0)
(4.98446 0.0208426 0)
(4.98166 0.030088 0)
(4.98 0.0417421 0)
(4.98157 0.0556885 0)
(4.99989 0.000837605 0)
(4.99939 0.00256417 0)
(4.99821 0.00469716 0)
(4.99644 0.00753894 0)
(4.99435 0.0113634 0)
(4.99222 0.0164287 0)
(4.99038 0.0229678 0)
(4.98942 0.0311465 0)
(4.98966 0.0409898 0)
(4.99362 0.0521971 0)
(4.99993 0.00107806 0)
(4.99962 0.00327271 0)
(4.99889 0.00580693 0)
(4.99783 0.00892156 0)
(4.99664 0.0128239 0)
(4.99559 0.0176896 0)
(4.99499 0.0236548 0)
(4.9952 0.0307715 0)
(4.99654 0.0389978 0)
(4.99986 0.0477986 0)
(4.99997 0.00122042 0)
(4.99981 0.00368771 0)
(4.99944 0.00643189 0)
(4.99893 0.00964023 0)
(4.99844 0.0134668 0)
(4.99821 0.0180269 0)
(4.99847 0.0233939 0)
(4.99953 0.0295566 0)
(5.00159 0.0364539 0)
(5.00575 0.0436222 0)
(5 0.00128336 0)
(4.99996 0.00386808 0)
(4.99988 0.00667503 0)
(4.99979 0.00984647 0)
(4.99984 0.0134947 0)
(5.00021 0.0176932 0)
(5.00108 0.0224756 0)
(5.00265 0.027802 0)
(5.00509 0.0336048 0)
(5.00862 0.0394205 0)
(5.00001 0.0012848 0)
(5.00007 0.00386511 0)
(5.00021 0.00662266 0)
(5.00045 0.00966296 0)
(5.0009 0.0130674 0)
(5.0017 0.0168812 0)
(5.003 0.021116 0)
(5.00493 0.0257197 0)
(5.00763 0.0306362 0)
(5.01145 0.0354948 0)
(5.00003 0.00123845 0)
(5.00016 0.00372166 0)
(5.00046 0.00634494 0)
(5.00096 0.0091873 0)
(5.00171 0.0123072 0)
(5.00282 0.0157318 0)
(5.00442 0.0194614 0)
(5.00656 0.023443 0)
(5.00935 0.0276345 0)
(5.01269 0.0317112 0)
(5.00004 0.00115585 0)
(5.00022 0.00346956 0)
(5.00066 0.00589553 0)
(5.00134 0.0084926 0)
(5.00232 0.0113032 0)
(5.00366 0.0143434 0)
(5.00546 0.017608 0)
(5.00776 0.0210511 0)
(5.01063 0.0246379 0)
(5.01424 0.028118 0)
(5.00005 0.00104476 0)
(5.00028 0.00313378 0)
(5.00081 0.00531474 0)
(5.00164 0.00763175 0)
(5.00278 0.0101162 0)
(5.0043 0.0127795 0)
(5.00626 0.0156174 0)
(5.00865 0.0185941 0)
(5.01155 0.0216855 0)
(5.01467 0.0247132 0)
(5.00006 0.000910898 0)
(5.00032 0.00273163 0)
(5.00093 0.00463198 0)
(5.00188 0.00664499 0)
(5.00316 0.00879106 0)
(5.00481 0.011077 0)
(5.00689 0.0135003 0)
(5.00939 0.0160372 0)
(5.01234 0.0186724 0)
(5.01589 0.0212571 0)
(5.00006 0.000757869 0)
(5.00036 0.00227278 0)
(5.00104 0.00386189 0)
(5.00208 0.00555495 0)
(5.00347 0.00736895 0)
(5.00523 0.00931052 0)
(5.0074 0.0113805 0)
(5.00996 0.0135657 0)
(5.01294 0.0158642 0)
(5.01591 0.0182223 0)
(5.00007 0.000586704 0)
(5.00039 0.00176801 0)
(5.00115 0.00301673 0)
(5.00229 0.00434207 0)
(5.00379 0.00575678 0)
(5.00567 0.00727382 0)
(5.00796 0.00890019 0)
(5.01066 0.0106365 0)
(5.01376 0.0124902 0)
(5.01754 0.0144138 0)
(5.00008 0.000389134 0)
(5.00044 0.00121871 0)
(5.00124 0.00217693 0)
(5.00242 0.00323683 0)
(5.00397 0.00439255 0)
(5.00592 0.00565324 0)
(5.00829 0.00702794 0)
(5.01104 0.0085319 0)
(5.01422 0.0101938 0)
(5.0172 0.0121411 0)
(5.00013 0.000140726 0)
(5.00062 0.000465448 0)
(5.00157 0.000888271 0)
(5.00289 0.00138584 0)
(5.00457 0.0019627 0)
(5.00665 0.00262438 0)
(5.00915 0.00336655 0)
(5.01212 0.00419385 0)
(5.0156 0.00514855 0)
(5.01993 0.00642242 0)
(4.94248 0.0717488 -9.11836e-21)
(4.9433 0.0750232 -9.2409e-21)
(4.94429 0.0785714 9.71022e-22)
(4.94509 0.0823111 0)
(4.94584 0.0861624 -7.84359e-21)
(4.94678 0.0900867 -1.74157e-20)
(4.94801 0.0940732 4.5346e-21)
(4.94948 0.0981169 -4.4992e-21)
(4.95116 0.102208 -3.91197e-21)
(4.95301 0.106333 -5.24292e-22)
(4.95506 0.110474 -1.19436e-23)
(4.95735 0.11462 -3.76801e-21)
(4.95988 0.118758 4.21597e-21)
(4.96266 0.122872 0)
(4.96567 0.126946 0)
(4.96892 0.13096 3.55011e-21)
(4.9724 0.134897 0)
(4.97611 0.138737 3.79504e-21)
(4.98004 0.142465 -3.6918e-21)
(4.9842 0.146063 0)
(4.98858 0.149516 0)
(4.99318 0.152808 -3.75019e-21)
(4.99798 0.155926 3.40293e-21)
(5.00299 0.158862 3.08955e-21)
(5.00817 0.161614 0)
(5.01351 0.164176 1.35698e-21)
(5.01899 0.16654 0)
(5.02459 0.168695 -1.26273e-21)
(5.03029 0.170626 -8.88225e-22)
(5.03606 0.172325 -3.00995e-22)
(5.04188 0.173787 -2.15107e-21)
(5.04774 0.175009 5.29649e-22)
(5.0536 0.175992 5.05438e-22)
(5.05946 0.176736 0)
(5.06527 0.177244 -5.64798e-22)
(5.07103 0.177524 1.0643e-22)
(5.0767 0.177581 2.06666e-22)
(5.08226 0.177425 4.18583e-23)
(5.0877 0.177064 5.0415e-24)
(5.09299 0.176512 -5.03501e-24)
(5.09813 0.175782 4.84923e-23)
(5.10309 0.174887 7.91064e-23)
(5.10787 0.173843 0)
(5.11246 0.172668 -1.83723e-23)
(5.11684 0.171377 -2.71363e-22)
(5.12102 0.169988 0)
(5.12498 0.168516 0)
(5.12873 0.16698 2.37767e-22)
(5.13228 0.165395 6.36336e-22)
(5.13561 0.163778 -1.25275e-24)
(5.13875 0.162145 6.59424e-23)
(5.14168 0.160512 -1.29222e-22)
(5.14443 0.158892 4.88537e-22)
(5.14701 0.157298 -4.11566e-22)
(5.14941 0.155743 0)
(5.15166 0.154238 -1.12986e-22)
(5.15376 0.152793 7.50561e-23)
(5.15574 0.151415 8.38638e-22)
(5.15759 0.150114 7.75674e-23)
(5.15934 0.148888 8.69586e-22)
(5.161 0.147736 8.91134e-23)
(5.16257 0.146682 -8.90296e-23)
(5.16408 0.145715 -9.9531e-23)
(5.16553 0.144842 2.04904e-22)
(5.16694 0.144065 8.00414e-22)
(5.16831 0.14338 1.11738e-22)
(5.16967 0.142787 -1.09915e-21)
(5.17101 0.142282 3.3868e-22)
(5.17234 0.141859 -6.1057e-22)
(5.17368 0.141512 -1.49358e-22)
(5.17503 0.141233 1.49199e-22)
(5.1764 0.141028 -1.66525e-22)
(5.17779 0.140867 8.66641e-22)
(5.1792 0.140743 5.09793e-21)
(5.18065 0.14064 3.13778e-21)
(5.18209 0.140541 -1.01918e-22)
(5.18365 0.140409 -2.70555e-21)
(5.1849 0.140264 2.9374e-21)
(5.18757 0.139893 3.09173e-21)
(4.97058 0.0707983 -6.01869e-23)
(4.97184 0.0736545 6.02319e-23)
(4.97304 0.0766033 1.57747e-20)
(4.97412 0.0796078 -2.36973e-22)
(4.97523 0.0826638 8.0691e-21)
(4.97647 0.0857642 7.55473e-21)
(4.97786 0.0888972 -3.51437e-21)
(4.9794 0.0920517 3.94197e-21)
(4.98107 0.0952197 4.49285e-22)
(4.98286 0.0983953 -4.49493e-22)
(4.98478 0.101572 7.25786e-21)
(4.98685 0.104742 -3.40113e-21)
(4.98907 0.107894 -4.26006e-22)
(4.99143 0.111019 4.26128e-22)
(4.9939 0.114106 0)
(4.9965 0.117147 -3.52966e-21)
(4.99923 0.120132 0)
(5.0021 0.123052 3.11064e-21)
(5.00509 0.125899 3.4377e-21)
(5.00821 0.128664 -8.18823e-24)
(5.01143 0.131337 -3.6803e-21)
(5.01478 0.13391 3.24686e-21)
(5.01822 0.136373 -3.33684e-21)
(5.02166 0.138717 1.727e-21)
(5.02523 0.140931 0)
(5.02884 0.143006 -4.17577e-23)
(5.03257 0.144936 1.27753e-21)
(5.03642 0.146716 -1.24342e-21)
(5.04028 0.148341 2.89802e-22)
(5.04416 0.149808 -1.18579e-21)
(5.04805 0.151116 1.9712e-21)
(5.05196 0.152264 -5.29624e-22)
(5.05588 0.153251 -6.31715e-22)
(5.05979 0.15408 1.25979e-22)
(5.0637 0.154751 3.41626e-22)
(5.06758 0.155269 1.17007e-22)
(5.07143 0.155639 -2.07053e-22)
(5.07523 0.155866 9.82281e-23)
(5.07898 0.155957 -1.18616e-22)
(5.08267 0.155922 6.28575e-24)
(5.08629 0.155767 0)
(5.08984 0.155504 -1.82153e-22)
(5.09331 0.15514 0)
(5.0967 0.154687 -1.35289e-22)
(5.1 0.154155 -2.23702e-23)
(5.1032 0.153555 7.88213e-23)
(5.10631 0.152898 -1.55319e-22)
(5.10931 0.152194 -1.62357e-22)
(5.11222 0.151454 -1.15313e-21)
(5.11502 0.150689 5.37797e-22)
(5.11773 0.149909 1.42301e-22)
(5.12035 0.149125 -1.37615e-22)
(5.12287 0.148344 3.7221e-22)
(5.12529 0.147578 4.13633e-22)
(5.12762 0.146832 1.33852e-22)
(5.12987 0.146116 -1.33726e-22)
(5.13203 0.145437 6.37764e-22)
(5.13411 0.1448 -8.40766e-22)
(5.13611 0.144211 0)
(5.13805 0.143677 -7.37645e-22)
(5.13991 0.143195 -1.3616e-22)
(5.14172 0.142774 -1.44358e-21)
(5.14346 0.142425 1.39905e-22)
(5.14516 0.142146 0)
(5.1468 0.141938 -8.74273e-22)
(5.1484 0.141808 -1.4818e-22)
(5.14996 0.141755 1.10448e-21)
(5.15148 0.141782 -1.14954e-21)
(5.15296 0.141889 0)
(5.15442 0.142078 0)
(5.15583 0.14235 -1.50367e-21)
(5.15722 0.142697 0)
(5.15857 0.14312 1.59472e-21)
(5.15989 0.143621 -4.63173e-21)
(5.16118 0.144199 -3.15558e-21)
(5.16239 0.144851 0)
(5.16367 0.14558 -3.43322e-21)
(5.16462 0.146395 2.68562e-23)
(5.16663 0.147038 -2.68269e-23)
(4.98256 0.0643669 6.95441e-21)
(4.98359 0.0664055 3.56215e-21)
(4.98472 0.068477 -1.09004e-20)
(4.98578 0.0705737 0)
(4.98682 0.072692 2.19381e-22)
(4.98793 0.0748253 -2.19516e-22)
(4.98916 0.0769671 4.32216e-22)
(4.9905 0.0791122 -4.32453e-22)
(4.99193 0.0812566 3.69946e-21)
(4.99344 0.0833959 -3.66963e-21)
(4.99504 0.0855244 -3.43575e-21)
(4.99673 0.0876356 3.39463e-21)
(4.99851 0.0897232 -4.06808e-22)
(5.00038 0.0917826 4.06947e-22)
(5.00234 0.0938101 3.07602e-21)
(5.00439 0.0958014 3.03845e-21)
(5.00653 0.0977518 0)
(5.00877 0.099658 -3.10595e-21)
(5.01109 0.101518 -3.05109e-21)
(5.01349 0.10333 0)
(5.01596 0.105093 1.52183e-21)
(5.01851 0.106803 -2.87803e-21)
(5.02113 0.108461 -1.36963e-21)
(5.02382 0.110056 -1.37778e-21)
(5.02656 0.111575 -1.3233e-21)
(5.02937 0.113011 -1.31225e-21)
(5.03222 0.114358 -2.69689e-24)
(5.03512 0.11562 2.49565e-21)
(5.03805 0.116799 3.07314e-22)
(5.04102 0.1179 8.70709e-22)
(5.04402 0.118921 -5.55269e-22)
(5.04703 0.119863 5.77864e-22)
(5.05006 0.120727 1.39881e-22)
(5.05309 0.121512 -6.94464e-22)
(5.05613 0.122221 -1.33281e-22)
(5.05916 0.122854 1.33177e-22)
(5.06217 0.123413 -2.60788e-22)
(5.0652 0.1239 0)
(5.06813 0.124318 1.12638e-22)
(5.07107 0.124671 7.39329e-24)
(5.07398 0.124962 -7.38716e-24)
(5.07685 0.125194 1.03108e-22)
(5.07968 0.125372 -2.32105e-22)
(5.08246 0.125499 1.95092e-22)
(5.08518 0.12558 3.80142e-22)
(5.08786 0.125619 -1.04269e-22)
(5.09047 0.12562 1.72153e-24)
(5.09302 0.125589 1.02369e-22)
(5.09552 0.125531 9.19568e-22)
(5.09795 0.125449 -4.84565e-22)
(5.10033 0.125348 0)
(5.10265 0.125232 -1.91562e-22)
(5.10491 0.125107 -4.64024e-22)
(5.1071 0.124976 8.04987e-22)
(5.10924 0.124844 -8.00028e-22)
(5.11133 0.124714 0)
(5.11336 0.12459 -6.40591e-22)
(5.11534 0.124475 7.91375e-22)
(5.11727 0.124374 -7.90506e-22)
(5.11915 0.124289 0)
(5.12099 0.124224 1.87537e-22)
(5.12279 0.124182 1.31065e-21)
(5.12456 0.124165 -1.88362e-22)
(5.12629 0.124177 0)
(5.12799 0.124218 0)
(5.12967 0.124293 1.95027e-22)
(5.13133 0.124401 -1.94831e-22)
(5.13296 0.124545 0)
(5.13459 0.124728 0)
(5.1362 0.124951 1.47189e-21)
(5.13781 0.125217 1.71512e-21)
(5.13941 0.125525 1.50169e-21)
(5.14102 0.125876 2.10487e-22)
(5.14264 0.126274 -2.49587e-22)
(5.14427 0.126721 1.08398e-22)
(5.14589 0.127221 1.11847e-22)
(5.14762 0.127777 5.09593e-21)
(5.14912 0.128387 -1.78105e-21)
(5.15157 0.129115 -3.72389e-21)
(4.99622 0.0593007 -6.99044e-21)
(4.99731 0.060994 -1.61989e-22)
(4.99839 0.0627146 3.21237e-21)
(4.99944 0.0644499 3.38965e-21)
(5.00049 0.0661974 2.00979e-22)
(5.00159 0.0679534 -2.01097e-22)
(5.00275 0.0697134 0)
(5.00399 0.0714738 0)
(5.00531 0.0732318 -2.87759e-21)
(5.00668 0.0749847 -2.05588e-22)
(5.00809 0.0767295 3.02771e-21)
(5.00956 0.078463 -3.78449e-22)
(5.01109 0.0801824 -2.59607e-21)
(5.01268 0.0818848 2.94686e-21)
(5.01432 0.0835675 -2.70207e-21)
(5.01603 0.0852275 -3.39816e-21)
(5.0178 0.0868616 2.85912e-21)
(5.01957 0.0884663 -2.82825e-21)
(5.02142 0.0900385 0)
(5.02326 0.0915753 -3.44518e-22)
(5.02524 0.0930738 2.78234e-21)
(5.02716 0.0945315 3.39746e-22)
(5.02917 0.095946 1.36713e-21)
(5.03125 0.0973149 0)
(5.03336 0.0986361 2.43331e-23)
(5.03549 0.0999079 -1.27968e-21)
(5.03765 0.101128 -1.27443e-21)
(5.03984 0.102294 -5.94902e-24)
(5.04205 0.103405 0)
(5.04427 0.10446 9.0011e-22)
(5.0465 0.105459 -7.39605e-22)
(5.04875 0.1064 -8.65947e-22)
(5.05102 0.107285 2.30328e-24)
(5.05328 0.108114 1.24995e-22)
(5.05556 0.108887 -1.35835e-22)
(5.05783 0.109605 1.35751e-22)
(5.06009 0.110269 2.61022e-22)
(5.06235 0.11088 -1.34587e-22)
(5.0646 0.111438 -1.32729e-22)
(5.06684 0.111948 7.82795e-24)
(5.06906 0.112412 -3.86562e-23)
(5.07127 0.112835 -3.58533e-23)
(5.07347 0.113216 1.71815e-22)
(5.07564 0.113558 -1.18088e-22)
(5.07779 0.113864 3.63446e-22)
(5.07991 0.114138 -4.8525e-22)
(5.08202 0.114382 -1.13663e-22)
(5.08409 0.114599 1.19579e-24)
(5.08614 0.114793 1.58694e-22)
(5.08816 0.114967 -6.86174e-22)
(5.09016 0.115123 1.79501e-24)
(5.09212 0.115266 9.18188e-22)
(5.09406 0.115398 2.16308e-22)
(5.09598 0.115522 -8.07318e-22)
(5.09786 0.115641 1.48875e-21)
(5.09972 0.115759 1.1064e-21)
(5.10156 0.115877 0)
(5.10336 0.115999 -1.00398e-21)
(5.10515 0.116127 1.21274e-21)
(5.10691 0.116263 -2.09597e-22)
(5.10864 0.116409 0)
(5.11036 0.116567 -1.97138e-21)
(5.11205 0.11674 2.09655e-22)
(5.11373 0.116929 -1.97337e-21)
(5.11539 0.117135 1.97543e-21)
(5.11704 0.11736 0)
(5.11867 0.117604 1.98608e-21)
(5.12028 0.11787 -1.99131e-21)
(5.12189 0.118156 -2.15995e-22)
(5.12348 0.118465 1.07596e-22)
(5.12507 0.118796 2.17248e-22)
(5.12666 0.11915 -1.71842e-21)
(5.12823 0.119526 0)
(5.12981 0.119924 -1.83485e-22)
(5.13139 0.120344 1.12168e-22)
(5.13295 0.120786 -1.96631e-21)
(5.13459 0.121249 -1.70892e-21)
(5.13604 0.121723 -3.14241e-23)
(5.13824 0.122285 3.73789e-21)
(5.00183 0.0533054 4.94849e-23)
(5.00268 0.0545749 -2.99898e-22)
(5.00361 0.0558535 -2.76204e-21)
(5.00452 0.0571369 -3.37944e-21)
(5.00541 0.0584233 0)
(5.00632 0.0597103 2.62114e-21)
(5.00729 0.060995 2.64515e-24)
(5.00832 0.0622749 3.82169e-22)
(5.00939 0.0635481 -2.94997e-21)
(5.01051 0.0648128 5.98144e-21)
(5.01166 0.0660688 -3.02619e-21)
(5.01285 0.0673162 0)
(5.01409 0.0685556 2.97336e-21)
(5.01537 0.0697858 -2.94567e-21)
(5.01669 0.0710047 3.59013e-22)
(5.01806 0.0722122 2.79329e-21)
(5.01946 0.0734079 -3.21421e-21)
(5.0209 0.0745874 1.10456e-21)
(5.02237 0.0757457 3.49176e-22)
(5.02389 0.0768782 -3.42137e-22)
(5.02544 0.0779828 -1.02287e-21)
(5.02702 0.0790576 0)
(5.02863 0.0800999 -1.31055e-21)
(5.03028 0.0811105 -3.27737e-22)
(5.03195 0.082091 2.58516e-21)
(5.03364 0.0830412 2.55497e-21)
(5.03537 0.0839604 3.20417e-22)
(5.03711 0.0848485 -2.49027e-21)
(5.03888 0.0857063 3.09135e-22)
(5.04066 0.0865337 -6.08935e-22)
(5.04247 0.0873309 -3.05208e-22)
(5.04429 0.0880976 5.95325e-22)
(5.04612 0.0888338 -5.88703e-22)
(5.04796 0.0895396 5.71097e-22)
(5.04982 0.090215 0)
(5.05167 0.0908609 0)
(5.05354 0.0914773 2.81632e-22)
(5.05545 0.092065 2.74152e-22)
(5.0573 0.0926256 1.32977e-22)
(5.05913 0.09316 8.4463e-24)
(5.06097 0.0936688 -1.09335e-22)
(5.06284 0.0941531 2.94687e-22)
(5.06469 0.0946139 6.53069e-23)
(5.06654 0.0950526 -6.52652e-23)
(5.06838 0.0954704 -1.18118e-22)
(5.07021 0.0958687 3.58617e-22)
(5.07202 0.0962489 1.25464e-22)
(5.07383 0.0966127 -1.25377e-22)
(5.07562 0.0969614 -4.71535e-22)
(5.07739 0.0972967 4.67222e-22)
(5.07916 0.09762 0)
(5.08091 0.0979328 6.30669e-23)
(5.08264 0.0982367 0)
(5.08437 0.0985332 7.32266e-22)
(5.08607 0.0988237 -9.00353e-22)
(5.08777 0.0991098 -6.6037e-22)
(5.08945 0.0993929 0)
(5.09111 0.0996744 0)
(5.09277 0.0999557 0)
(5.09441 0.100238 -9.45453e-22)
(5.09604 0.100523 2.31853e-22)
(5.09766 0.100812 5.9497e-22)
(5.09927 0.101106 -2.31246e-22)
(5.10088 0.101406 -1.06858e-22)
(5.10247 0.101713 -1.30881e-21)
(5.10406 0.102028 -4.62088e-22)
(5.10565 0.102352 -1.54776e-21)
(5.10723 0.102686 1.78425e-21)
(5.10881 0.10303 0)
(5.1104 0.103386 -2.03071e-21)
(5.11198 0.103753 2.10926e-21)
(5.11356 0.104133 0)
(5.11514 0.104527 2.34456e-22)
(5.11674 0.104933 -2.85027e-22)
(5.11834 0.105353 0)
(5.11993 0.105787 1.74019e-21)
(5.12158 0.106236 2.07832e-21)
(5.12309 0.106688 -1.11473e-22)
(5.12521 0.107219 -1.88191e-21)
(5.00837 0.0481627 3.00696e-21)
(5.0092 0.0492302 -3.11883e-21)
(5.01006 0.05031 3.05337e-21)
(5.01092 0.051395 2.91425e-21)
(5.01177 0.0524839 0)
(5.01264 0.0535756 -1.17108e-22)
(5.01353 0.0546681 0)
(5.01447 0.0557596 3.60014e-22)
(5.01546 0.0568488 2.58707e-21)
(5.01648 0.0579346 -2.92734e-21)
(5.01749 0.0590161 -2.80543e-21)
(5.01855 0.0600921 -3.50579e-22)
(5.0196 0.0611615 6.9874e-22)
(5.02072 0.0622227 -3.09933e-21)
(5.02188 0.0632746 1.02345e-21)
(5.02299 0.0643159 -2.45143e-21)
(5.02419 0.0653453 0)
(5.02542 0.0663617 1.37283e-21)
(5.02666 0.0673639 -1.32696e-21)
(5.02793 0.0683509 3.28864e-22)
(5.02922 0.0693216 -3.2895e-22)
(5.03054 0.0702752 3.23216e-22)
(5.03187 0.071211 -6.20469e-22)
(5.03323 0.0721282 3.20429e-22)
(5.03461 0.073026 -2.54953e-21)
(5.036 0.073904 -1.58237e-21)
(5.03741 0.0747615 2.90272e-24)
(5.03883 0.0755983 2.47679e-21)
(5.04027 0.0764134 2.95209e-24)
(5.04173 0.0772064 3.03014e-22)
(5.04319 0.077977 -1.48627e-22)
(5.04467 0.078725 -4.46831e-22)
(5.04615 0.0794503 -1.47713e-22)
(5.04764 0.0801525 1.45705e-22)
(5.04915 0.0808319 -2.90247e-22)
(5.05064 0.0814886 2.87735e-22)
(5.05218 0.0821224 -2.81796e-22)
(5.05368 0.082734 -2.80866e-22)
(5.05519 0.0833248 -1.40266e-22)
(5.05672 0.0838948 8.52961e-24)
(5.05824 0.0844443 -9.93537e-24)
(5.05977 0.0849751 -1.33761e-22)
(5.06129 0.0854882 0)
(5.06282 0.0859836 0)
(5.06433 0.086462 0)
(5.06585 0.0869244 2.65297e-22)
(5.06736 0.0873715 6.55578e-22)
(5.06887 0.0878045 -1.28718e-22)
(5.07038 0.0882243 5.1959e-22)
(5.07188 0.0886318 -2.52276e-22)
(5.07337 0.089028 -2.60886e-22)
(5.07487 0.0894139 -7.23268e-22)
(5.07635 0.0897905 4.96782e-22)
(5.07783 0.0901589 3.52117e-23)
(5.0793 0.0905199 7.56995e-22)
(5.08077 0.0908747 -2.44105e-22)
(5.08223 0.0912242 9.9462e-22)
(5.08369 0.0915694 2.42879e-22)
(5.08514 0.0919112 0)
(5.08659 0.0922504 -3.41878e-23)
(5.08803 0.0925878 9.7838e-22)
(5.08947 0.0929243 1.18216e-21)
(5.0909 0.0932604 -2.39009e-22)
(5.09233 0.0935969 1.64165e-21)
(5.09376 0.0939343 4.75984e-22)
(5.09518 0.0942732 1.45587e-21)
(5.0966 0.0946141 4.74894e-22)
(5.09803 0.0949574 1.9248e-21)
(5.09945 0.0953036 -2.15926e-21)
(5.10087 0.0956529 0)
(5.10229 0.0960056 -2.11961e-21)
(5.10371 0.0963619 2.37134e-22)
(5.10514 0.0967219 -1.91616e-21)
(5.10657 0.0970858 -2.33059e-23)
(5.108 0.0974534 0)
(5.10943 0.0978248 -1.91545e-21)
(5.1109 0.0982 -1.84677e-21)
(5.11226 0.0985736 1.82157e-21)
(5.1141 0.0989909 1.94781e-21)
(5.0107 0.0430579 -3.00571e-21)
(5.01137 0.0438968 1.35899e-22)
(5.0121 0.0447408 -9.04988e-23)
(5.01284 0.0455877 -2.71405e-22)
(5.01356 0.0464376 1.79284e-22)
(5.01429 0.0472894 -5.68313e-21)
(5.01505 0.0481429 -2.78446e-21)
(5.01584 0.048998 3.12255e-21)
(5.01665 0.0498537 -3.51813e-22)
(5.01749 0.050709 0)
(5.01836 0.051562 3.15173e-21)
(5.01923 0.0524106 -3.05991e-21)
(5.02014 0.0532523 0)
(5.02106 0.0540857 4.09345e-21)
(5.02201 0.0549109 -1.36638e-21)
(5.02298 0.0557262 1.66213e-21)
(5.02397 0.05653 -3.35919e-22)
(5.02498 0.0573231 0)
(5.02601 0.0581059 1.32729e-21)
(5.02706 0.0588782 0)
(5.02813 0.0596395 0)
(5.02921 0.0603892 -1.27756e-21)
(5.03032 0.0611268 1.28694e-21)
(5.03144 0.0618518 -3.18075e-22)
(5.03258 0.0625639 1.90031e-21)
(5.03374 0.0632626 -1.24623e-21)
(5.03491 0.0639478 -2.34671e-24)
(5.03609 0.0646191 -6.24384e-22)
(5.03729 0.0652764 -9.12734e-22)
(5.03851 0.0659201 -9.08892e-22)
(5.03973 0.06655 1.53189e-22)
(5.04097 0.0671664 1.50848e-22)
(5.04222 0.0677691 5.91357e-22)
(5.04347 0.0683582 -1.47377e-22)
(5.04473 0.0689345 7.29412e-22)
(5.04602 0.0694971 1.36069e-24)
(5.04732 0.0700454 0)
(5.04864 0.0705814 1.4163e-22)
(5.04993 0.0711055 1.40456e-22)
(5.05121 0.0716175 0)
(5.0525 0.0721176 1.0399e-22)
(5.05379 0.0726063 1.73682e-22)
(5.05512 0.0730839 6.88672e-23)
(5.05644 0.073551 -6.88329e-23)
(5.05777 0.074008 0)
(5.0591 0.0744553 -4.00656e-22)
(5.06043 0.0748935 -2.58925e-22)
(5.06176 0.0753229 -6.67654e-22)
(5.06309 0.0757441 -7.86499e-22)
(5.06442 0.0761575 -5.27483e-22)
(5.06575 0.0765637 1.03838e-21)
(5.06708 0.0769631 -7.72301e-22)
(5.06842 0.0773563 2.58581e-22)
(5.06975 0.0777438 -1.26909e-21)
(5.07108 0.0781262 2.77319e-22)
(5.07241 0.0785039 -1.05787e-24)
(5.07374 0.0788774 -2.3341e-22)
(5.07507 0.0792472 1.0126e-21)
(5.0764 0.0796138 -1.00825e-21)
(5.07773 0.0799776 7.33811e-22)
(5.07907 0.0803389 -7.30636e-22)
(5.0804 0.0806983 0)
(5.08173 0.081056 2.47726e-22)
(5.08306 0.0814125 -1.23703e-21)
(5.08439 0.0817681 0)
(5.08573 0.0821231 -2.91969e-21)
(5.08707 0.0824778 0)
(5.0884 0.0828325 -1.92995e-21)
(5.08974 0.0831875 1.92745e-21)
(5.09109 0.0835428 2.43415e-22)
(5.09244 0.0838986 -4.86166e-22)
(5.09379 0.0842552 -1.69467e-21)
(5.09514 0.0846124 3.85524e-21)
(5.0965 0.0849705 3.85112e-21)
(5.09787 0.0853293 1.20797e-22)
(5.09924 0.0856891 1.80049e-21)
(5.10064 0.0860495 6.02661e-23)
(5.10195 0.0864072 -3.00952e-23)
(5.10365 0.0867961 -3.0076e-23)
(5.01388 0.0385495 2.77457e-21)
(5.01456 0.0392698 0)
(5.01523 0.0399995 2.57962e-21)
(5.01591 0.0407323 -2.64815e-21)
(5.01659 0.0414671 0)
(5.0173 0.0422034 7.72107e-23)
(5.018 0.0429405 2.78391e-21)
(5.01871 0.0436774 -2.77036e-21)
(5.01947 0.0444133 0)
(5.02024 0.0451475 0)
(5.02103 0.0458796 0)
(5.02183 0.046609 2.71315e-21)
(5.02265 0.0473349 1.31738e-21)
(5.02348 0.0480571 -1.34153e-21)
(5.02434 0.048775 0)
(5.0252 0.0494881 -2.94896e-21)
(5.02609 0.050196 3.25317e-22)
(5.02699 0.0508983 -1.28424e-21)
(5.0279 0.0515945 0)
(5.02883 0.0522843 0)
(5.02977 0.0529671 0)
(5.03073 0.0536427 9.63371e-22)
(5.0317 0.0543106 6.26005e-22)
(5.03268 0.0549705 -1.99671e-24)
(5.03367 0.055622 -3.10145e-22)
(5.03468 0.056265 3.23395e-22)
(5.03569 0.056899 1.97548e-24)
(5.03672 0.0575239 -9.15954e-22)
(5.03775 0.0581395 6.09128e-22)
(5.0388 0.0587456 6.0474e-22)
(5.03985 0.059342 -1.48231e-22)
(5.04092 0.0599284 -4.43911e-22)
(5.04199 0.0605045 0)
(5.04307 0.0610707 0)
(5.04414 0.0616273 -2.91606e-22)
(5.04525 0.0621738 -5.78292e-22)
(5.04638 0.0627102 0)
(5.04743 0.0632377 0)
(5.04854 0.0637546 -7.08829e-23)
(5.04966 0.064259 8.73305e-24)
(5.05078 0.0647512 -1.48671e-22)
(5.0519 0.0652325 -1.38848e-22)
(5.05303 0.0657044 0)
(5.05416 0.0661684 2.7518e-22)
(5.0553 0.0666251 0)
(5.05643 0.0670749 0)
(5.05757 0.0675174 0)
(5.05871 0.0679523 6.67413e-22)
(5.05986 0.0683796 6.62833e-22)
(5.061 0.0687996 -7.96633e-22)
(5.06215 0.0692125 0)
(5.06329 0.0696187 2.6062e-22)
(5.06444 0.0700186 -1.15565e-24)
(5.06559 0.0704124 -2.59152e-22)
(5.06675 0.0708004 -1.28516e-21)
(5.0679 0.0711829 1.0183e-24)
(5.06905 0.0715603 -1.01773e-21)
(5.07021 0.0719327 -7.5987e-22)
(5.07137 0.0723006 1.00989e-21)
(5.07253 0.072664 0)
(5.07369 0.0730234 0)
(5.07485 0.0733789 1.00543e-21)
(5.07601 0.0737308 2.48525e-22)
(5.07718 0.0740793 1.98825e-21)
(5.07834 0.0744247 -4.94323e-22)
(5.07951 0.074767 1.23192e-21)
(5.08069 0.0751065 0)
(5.08186 0.0754432 0)
(5.08304 0.0757774 9.79944e-22)
(5.08422 0.076109 -2.4328e-22)
(5.0854 0.0764382 2.43065e-22)
(5.08659 0.076765 3.64107e-21)
(5.08778 0.0770894 -1.6962e-21)
(5.08897 0.0774115 -3.86434e-21)
(5.09017 0.0777311 0)
(5.09137 0.0780486 1.19994e-22)
(5.09259 0.078363 -1.19876e-22)
(5.09374 0.0786743 0)
(5.09521 0.0789991 -1.90393e-21)
(5.01466 0.0342518 -5.523e-21)
(5.01521 0.0348524 2.653e-21)
(5.01581 0.0354623 1.68817e-23)
(5.01642 0.0360741 -2.84475e-21)
(5.01702 0.0366858 -1.16347e-21)
(5.01762 0.0372976 3.05657e-21)
(5.01824 0.0379091 -3.36282e-22)
(5.01887 0.0385186 0)
(5.01953 0.0391256 -3.32115e-22)
(5.02019 0.0397306 3.32284e-22)
(5.02087 0.0403337 -1.30214e-21)
(5.02156 0.0409347 0)
(5.02226 0.0415333 -2.28255e-21)
(5.02298 0.042129 -1.61214e-21)
(5.02371 0.0427217 -1.27983e-21)
(5.02445 0.0433109 1.29825e-21)
(5.02521 0.0438963 -3.20474e-22)
(5.02598 0.0444775 3.42986e-22)
(5.02676 0.0450544 -3.17368e-22)
(5.02755 0.0456265 3.17469e-22)
(5.02835 0.0461937 1.24438e-21)
(5.02917 0.0467556 0)
(5.03 0.047312 3.10997e-22)
(5.03084 0.0478626 -6.20451e-22)
(5.03169 0.0484074 1.22714e-21)
(5.03255 0.048946 9.13365e-22)
(5.03342 0.0494783 -3.04492e-22)
(5.0343 0.0500042 9.11761e-22)
(5.03519 0.0505237 5.97504e-22)
(5.03609 0.0510368 0)
(5.037 0.0515433 0)
(5.03792 0.0520432 1.0344e-21)
(5.03885 0.0525364 -4.40234e-22)
(5.03978 0.0530231 -1.46326e-22)
(5.04072 0.053503 4.35307e-22)
(5.04168 0.0539771 4.32723e-22)
(5.04265 0.0544456 -1.42924e-22)
(5.04361 0.0549056 0)
(5.0446 0.0553568 7.98448e-23)
(5.04561 0.0558021 -8.8874e-24)
(5.04658 0.0562422 1.0488e-22)
(5.04755 0.0566763 3.51569e-23)
(5.04854 0.0571041 6.95519e-23)
(5.04953 0.0575258 -2.07438e-22)
(5.05052 0.0579414 0)
(5.05152 0.0583512 -1.36783e-22)
(5.05253 0.0587553 1.36721e-22)
(5.05356 0.0591539 1.35297e-22)
(5.05459 0.0595472 -1.35231e-22)
(5.05562 0.0599355 2.65021e-22)
(5.05665 0.0603187 2.67614e-22)
(5.05769 0.0606972 2.65025e-22)
(5.05873 0.061071 -1.17687e-24)
(5.05978 0.0614403 -2.63551e-22)
(5.06083 0.0618052 -5.20218e-22)
(5.06189 0.0621657 -2.59891e-22)
(5.06294 0.0625222 2.5973e-22)
(5.06401 0.0628745 -2.57484e-22)
(5.06507 0.063223 -7.63891e-22)
(5.06614 0.0635676 2.5518e-22)
(5.06721 0.0639086 -2.55004e-22)
(5.06829 0.0642459 3.30451e-25)
(5.06937 0.0645798 1.00339e-21)
(5.07045 0.0649103 -9.99561e-22)
(5.07154 0.0652375 -9.94983e-22)
(5.07263 0.0655614 -9.90898e-22)
(5.07372 0.0658821 9.8689e-22)
(5.07482 0.0661996 0)
(5.07592 0.066514 -2.98699e-24)
(5.07703 0.0668253 -2.45076e-22)
(5.07814 0.0671334 -7.26691e-22)
(5.07926 0.0674385 -1.94572e-21)
(5.08038 0.0677404 -9.64267e-22)
(5.0815 0.0680391 1.93433e-21)
(5.08263 0.0683345 1.2037e-22)
(5.08376 0.068627 1.78716e-21)
(5.08492 0.0689153 -1.84087e-21)
(5.08601 0.0692012 -1.92348e-21)
(5.08737 0.0694906 3.76623e-21)
(5.01645 0.0302724 2.66351e-21)
(5.017 0.0307829 -2.65431e-21)
(5.01757 0.0313012 -2.686e-21)
(5.01815 0.0318221 2.67582e-21)
(5.01873 0.0323444 1.16912e-21)
(5.01932 0.0328678 1.63967e-22)
(5.01991 0.033392 1.62114e-21)
(5.02052 0.0339166 -1.29258e-21)
(5.02114 0.0344413 -1.28785e-21)
(5.02177 0.0349658 -6.44517e-22)
(5.02241 0.0354898 1.62388e-21)
(5.02306 0.0360133 0)
(5.02372 0.0365356 1.29117e-21)
(5.0244 0.0370567 2.23113e-21)
(5.02508 0.0375762 1.59617e-21)
(5.02577 0.0380938 1.565e-21)
(5.02647 0.0386094 -6.25631e-22)
(5.02718 0.0391226 3.33443e-22)
(5.0279 0.0396332 3.09231e-22)
(5.02863 0.0401411 -3.09327e-22)
(5.02936 0.0406459 -1.85682e-21)
(5.03011 0.0411475 6.09773e-22)
(5.03086 0.0416457 0)
(5.03162 0.0421402 0)
(5.03239 0.0426309 -8.36665e-24)
(5.03317 0.0431176 -6.06816e-22)
(5.03396 0.0436001 -5.96007e-22)
(5.03475 0.0440784 -5.9323e-22)
(5.03555 0.0445522 -5.97463e-22)
(5.03636 0.0450215 0)
(5.03717 0.0454862 2.92277e-22)
(5.03799 0.0459462 -5.84688e-22)
(5.03881 0.0464018 2.90423e-24)
(5.03965 0.0468525 1.44359e-22)
(5.04048 0.0472981 -1.45546e-22)
(5.04131 0.047739 -1.4374e-22)
(5.04216 0.0481761 1.42959e-22)
(5.04305 0.04861 -1.05682e-22)
(5.04392 0.0490416 4.46457e-26)
(5.04475 0.0494705 8.69623e-24)
(5.0456 0.0498944 -1.48134e-22)
(5.04648 0.0503111 0)
(5.04736 0.0507201 0)
(5.04824 0.051121 -1.37681e-22)
(5.04913 0.0515131 0)
(5.05002 0.0518964 2.71041e-22)
(5.05091 0.0522718 2.69716e-22)
(5.05181 0.0526412 4.01966e-22)
(5.05271 0.0530062 -1.34804e-22)
(5.05361 0.0533678 -2.65679e-22)
(5.05452 0.0537261 0)
(5.05543 0.0540813 0)
(5.05634 0.0544337 0)
(5.05726 0.0547832 0)
(5.05818 0.0551297 5.20745e-22)
(5.0591 0.0554727 7.73443e-22)
(5.06003 0.0558118 -7.7085e-22)
(5.06096 0.0561465 0)
(5.06189 0.056477 7.66885e-22)
(5.06282 0.0568033 -9.58568e-25)
(5.06376 0.0571255 -9.3703e-25)
(5.0647 0.0574437 -1.00997e-21)
(5.06564 0.0577578 -1.00566e-21)
(5.06659 0.058068 -9.96347e-22)
(5.06754 0.0583744 9.95581e-22)
(5.06849 0.058677 -2.41306e-22)
(5.06945 0.0589759 -1.97081e-21)
(5.0704 0.0592709 -2.44175e-22)
(5.07136 0.0595623 2.3717e-22)
(5.07233 0.0598499 -2.42251e-22)
(5.0733 0.0601338 2.18083e-21)
(5.07427 0.060414 7.21025e-22)
(5.07524 0.0606904 1.20621e-21)
(5.07622 0.0609629 0)
(5.0772 0.0612315 0)
(5.07818 0.0614965 -1.91116e-21)
(5.07918 0.0617564 1.90446e-21)
(5.08013 0.0620145 1.92684e-21)
(5.08128 0.062269 -1.92065e-21)
(5.0165 0.0265829 4.09423e-23)
(5.01698 0.0270324 1.16911e-21)
(5.01749 0.0274899 -1.20599e-21)
(5.01802 0.0279498 -1.44569e-21)
(5.01854 0.0284109 -1.117e-21)
(5.01906 0.028873 3.22423e-22)
(5.01959 0.0293358 -2.8902e-21)
(5.02013 0.029799 1.61207e-21)
(5.02069 0.0302621 1.90994e-21)
(5.02125 0.0307249 3.19328e-22)
(5.02182 0.0311872 0)
(5.0224 0.0316488 0)
(5.02299 0.0321095 3.14614e-22)
(5.02359 0.0325691 -1.57715e-21)
(5.02419 0.0330274 0)
(5.0248 0.0334842 -1.25212e-21)
(5.02542 0.0339392 0)
(5.02605 0.0343922 1.55021e-21)
(5.02669 0.0348431 -7.88993e-24)
(5.02734 0.0352917 -2.98262e-22)
(5.02799 0.0357378 6.12767e-22)
(5.02865 0.0361813 -6.10051e-22)
(5.02932 0.0366221 3.02262e-22)
(5.03 0.03706 -1.36294e-24)
(5.03068 0.0374948 -3.0959e-22)
(5.03137 0.0379265 -5.9074e-22)
(5.03207 0.038355 5.96277e-22)
(5.03277 0.0387801 8.86334e-22)
(5.03349 0.0392017 0)
(5.0342 0.0396197 2.90186e-22)
(5.03493 0.040034 -2.92414e-22)
(5.03566 0.0404448 2.90963e-22)
(5.0364 0.0408519 3.34077e-24)
(5.03715 0.0412552 -2.8807e-22)
(5.0379 0.0416541 1.4175e-22)
(5.03865 0.0420488 0)
(5.03942 0.0424403 7.02084e-23)
(5.04018 0.0428298 3.53379e-23)
(5.04095 0.0432165 7.03586e-23)
(5.04173 0.0435985 8.72658e-24)
(5.04252 0.0439755 2.63677e-23)
(5.04333 0.044348 6.85544e-23)
(5.04413 0.044716 1.37039e-22)
(5.04493 0.0450784 -2.04598e-22)
(5.04575 0.0454349 -1.35169e-22)
(5.04657 0.045786 -4.05847e-22)
(5.0474 0.0461331 -2.15927e-24)
(5.04823 0.0464772 -2.68689e-22)
(5.04904 0.0468185 2.67395e-22)
(5.04985 0.0471563 -2.64067e-22)
(5.05067 0.0474902 0)
(5.0515 0.0478201 0)
(5.05232 0.048146 5.20594e-22)
(5.05316 0.0484679 0)