/*--------------------------------*- C++ -*----------------------------------*\
| =========                 |                                                 |
| \\      /  F ield         | OpenFOAM: The Open Source CFD Toolbox           |
|  \\    /   O peration     | Version:  2412                                  |
|   \\  /    A nd           | Website:  www.openfoam.com                      |
|    \\/     M anipulation  |                                                 |
\*---------------------------------------------------------------------------*/
FoamFile
{
    version     2.0;
    format      ascii;
    arch        "LSB;label=32;scalar=64";
    class       volScalarField;
    location    "1500";
    object      yPlus;
}
// * * * * * * * * * * * * * * * * * * * * * * * * * * * * * * * * * * * * * //

dimensions      [0 0 0 0 0 0 0];

internalField   uniform 0;

boundaryField
{
    sides
    {
        type            empty;
    }
    inlet
    {
        type            calculated;
        value           uniform 0;
    }
    topBot
    {
        type            calculated;
        value           uniform 0;
    }
    outlet
    {
        type            calculated;
        value           uniform 0;
    }
    wall
    {
        type            calculated;
        value           nonuniform List<scalar> 
316
(
349.586
343.274
336.757
330.038
323.121
316.007
308.701
301.211
293.542
285.697
277.681
269.495
261.145
252.634
243.965
235.142
226.163
217.031
207.743
198.3
188.705
178.963
169.077
159.051
148.883
138.564
128.076
117.41
106.562
95.548
84.3169
72.905
61.2942
49.2482
37.011
26.9904
19.5738
20.8152
30.3133
42.8034
57.8415
71.0804
82.5825
93.3541
104.092
115.033
126.078
136.993
147.594
157.833
167.809
177.615
187.314
196.912
206.39
215.727
224.915
233.949
242.832
251.564
260.146
268.577
276.855
284.979
292.947
300.756
308.403
315.887
323.203
330.343
337.302
344.077
350.667
357.072
363.288
369.313
375.147
380.794
386.258
100.986
106.593
112.062
117.372
122.504
127.44
132.165
136.663
140.917
144.911
148.63
152.059
155.183
157.985
160.447
162.555
164.297
165.675
166.695
167.371
167.711
167.695
167.314
166.59
165.528
164.141
162.437
160.427
158.125
155.546
152.708
149.628
146.319
142.803
139.127
135.284
131.255
127.082
122.769
118.315
113.763
109.184
104.588
99.9614
95.3163
90.6657
86.0106
81.3807
76.7974
72.2742
67.8216
63.4478
59.1568
54.9494
50.8308
46.8055
42.8732
39.0327
35.2824
31.6192
28.0294
24.5167
21.1128
17.8376
14.7325
11.9072
9.56394
8.52493
9.24171
11.1245
13.4372
15.9065
18.4496
20.8642
23.129
25.2196
27.1253
28.838
30.3503
391.541
396.649
401.57
406.289
410.802
415.106
419.202
423.087
426.755
430.197
433.404
436.368
439.08
441.533
443.725
445.65
447.298
448.676
449.787
450.629
451.192
451.461
451.415
451.043
450.342
449.302
447.903
446.134
443.995
441.485
438.583
435.24
431.39
426.981
421.973
416.331
410.006
402.921
394.971
386.022
375.884
364.326
351.179
336.156
318.912
298.831
275.306
247.651
215.628
181.707
145.881
108.283
72.6858
34.1361
32.0502
48.6457
58.2724
63.968
63.8701
57.1994
49.5815
46.1454
43.0632
41.4143
39.8751
39.4079
40.0019
41.3548
43.6591
46.9364
51.0091
55.6773
60.8179
66.2858
71.9515
77.7447
83.6009
89.4568
95.2666
355.699
361.598
367.307
372.817
378.128
383.241
388.144
392.829
397.291
401.524
405.522
409.28
412.789
416.039
419.017
421.71
424.111
426.218
428.015
429.5
430.681
431.549
432.092
432.294
432.13
431.584
430.637
429.259
427.424
425.12
422.317
418.96
414.978
410.302
404.854
398.54
391.241
382.807
373.053
361.732
348.664
333.454
315.686
294.943
270.357
240.568
206.691
169.36
128.108
87.862
56.1012
25.2095
42.8285
45.2104
48.4168
45.8334
37.413
32.5172
31.5228
31.6343
31.8759
31.3637
30.7713
30.5771
30.7381
31.1515
31.7709
32.5281
33.315
34.0288
34.5899
34.9638
35.1346
35.0816
34.8172
34.3422
33.6574
32.7632
31.6597
)
;
    }
}


// ************************************************************************* //
