/*--------------------------------*- C++ -*----------------------------------*\
| =========                 |                                                 |
| \\      /  F ield         | OpenFOAM: The Open Source CFD Toolbox           |
|  \\    /   O peration     | Version:  2412                                  |
|   \\  /    A nd           | Website:  www.openfoam.com                      |
|    \\/     M anipulation  |                                                 |
\*---------------------------------------------------------------------------*/
FoamFile
{
    version     2.0;
    format      ascii;
    arch        "LSB;label=32;scalar=64";
    class       volScalarField;
    location    "1500";
    object      nut;
}
// * * * * * * * * * * * * * * * * * * * * * * * * * * * * * * * * * * * * * //

dimensions      [0 2 -1 0 0 0 0];

internalField   nonuniform List<scalar> 
6320
(
1.04464e-09
1.04572e-09
1.04681e-09
1.0479e-09
1.04899e-09
1.05008e-09
1.05117e-09
1.05225e-09
1.05335e-09
1.05436e-09
1.04466e-09
1.04579e-09
1.04692e-09
1.04805e-09
1.04919e-09
1.05032e-09
1.05146e-09
1.05258e-09
1.05375e-09
1.0548e-09
1.04466e-09
1.04579e-09
1.04693e-09
1.04807e-09
1.04921e-09
1.05035e-09
1.05149e-09
1.05264e-09
1.05378e-09
1.05492e-09
1.04465e-09
1.04575e-09
1.04686e-09
1.04797e-09
1.04909e-09
1.0502e-09
1.05132e-09
1.05244e-09
1.05355e-09
1.05468e-09
1.04462e-09
1.04568e-09
1.04673e-09
1.04779e-09
1.04885e-09
1.04992e-09
1.05098e-09
1.05205e-09
1.05311e-09
1.0542e-09
1.04459e-09
1.04557e-09
1.04656e-09
1.04755e-09
1.04854e-09
1.04954e-09
1.05053e-09
1.05153e-09
1.05253e-09
1.05354e-09
1.04455e-09
1.04545e-09
1.04636e-09
1.04727e-09
1.04818e-09
1.04909e-09
1.05001e-09
1.05093e-09
1.05184e-09
1.05278e-09
1.0445e-09
1.04532e-09
1.04614e-09
1.04696e-09
1.04779e-09
1.04861e-09
1.04944e-09
1.05027e-09
1.0511e-09
1.05194e-09
1.04446e-09
1.04519e-09
1.04592e-09
1.04665e-09
1.04738e-09
1.04811e-09
1.04885e-09
1.04959e-09
1.05032e-09
1.05108e-09
1.04441e-09
1.04505e-09
1.04569e-09
1.04633e-09
1.04697e-09
1.04761e-09
1.04825e-09
1.0489e-09
1.04954e-09
1.0502e-09
1.04437e-09
1.04491e-09
1.04546e-09
1.04601e-09
1.04656e-09
1.04711e-09
1.04766e-09
1.04821e-09
1.04876e-09
1.04933e-09
1.04432e-09
1.04478e-09
1.04524e-09
1.04569e-09
1.04615e-09
1.04661e-09
1.04707e-09
1.04753e-09
1.04799e-09
1.04846e-09
1.04428e-09
1.04464e-09
1.04501e-09
1.04538e-09
1.04575e-09
1.04612e-09
1.04648e-09
1.04686e-09
1.04722e-09
1.0476e-09
1.04423e-09
1.04451e-09
1.04478e-09
1.04506e-09
1.04534e-09
1.04561e-09
1.04589e-09
1.04617e-09
1.04645e-09
1.04673e-09
1.04418e-09
1.04436e-09
1.04454e-09
1.04471e-09
1.04489e-09
1.04507e-09
1.04525e-09
1.04543e-09
1.04561e-09
1.0458e-09
1.04413e-09
1.04419e-09
1.04425e-09
1.04431e-09
1.04437e-09
1.04442e-09
1.04446e-09
1.04448e-09
1.0445e-09
1.04452e-09
1.05503e-09
1.0553e-09
1.05556e-09
1.0558e-09
1.05604e-09
1.05628e-09
1.05651e-09
1.05675e-09
1.05698e-09
1.05721e-09
1.05745e-09
1.0577e-09
1.05796e-09
1.05824e-09
1.05854e-09
1.05887e-09
1.05924e-09
1.05965e-09
1.06018e-09
1.06094e-09
1.0614e-09
1.06171e-09
1.06196e-09
1.06219e-09
1.06242e-09
1.06264e-09
1.06287e-09
1.0631e-09
1.06334e-09
1.06358e-09
1.06383e-09
1.06412e-09
1.06433e-09
1.0647e-09
1.0555e-09
1.05582e-09
1.05615e-09
1.05648e-09
1.05682e-09
1.05715e-09
1.05748e-09
1.05781e-09
1.05813e-09
1.05844e-09
1.05875e-09
1.05905e-09
1.05935e-09
1.05964e-09
1.05992e-09
1.0602e-09
1.06048e-09
1.06076e-09
1.06104e-09
1.06133e-09
1.06162e-09
1.06191e-09
1.0622e-09
1.06249e-09
1.06278e-09
1.06306e-09
1.06335e-09
1.06363e-09
1.06391e-09
1.06419e-09
1.06445e-09
1.06473e-09
1.06507e-09
1.06564e-09
1.05569e-09
1.05603e-09
1.05637e-09
1.0567e-09
1.05703e-09
1.05735e-09
1.05768e-09
1.05801e-09
1.05833e-09
1.05866e-09
1.05899e-09
1.05931e-09
1.05964e-09
1.05997e-09
1.06029e-09
1.06062e-09
1.06094e-09
1.06127e-09
1.06161e-09
1.06207e-09
1.06262e-09
1.06303e-09
1.06338e-09
1.0637e-09
1.06402e-09
1.06433e-09
1.06464e-09
1.06495e-09
1.06526e-09
1.06557e-09
1.06588e-09
1.06619e-09
1.06648e-09
1.0668e-09
1.05542e-09
1.05576e-09
1.05608e-09
1.05641e-09
1.05673e-09
1.05706e-09
1.05738e-09
1.0577e-09
1.05803e-09
1.05835e-09
1.05868e-09
1.059e-09
1.05933e-09
1.05965e-09
1.05997e-09
1.06029e-09
1.06062e-09
1.06094e-09
1.06126e-09
1.06159e-09
1.06191e-09
1.06224e-09
1.06257e-09
1.0629e-09
1.06323e-09
1.06356e-09
1.06389e-09
1.06422e-09
1.06455e-09
1.06488e-09
1.06521e-09
1.06555e-09
1.06587e-09
1.06622e-09
1.05492e-09
1.05524e-09
1.05554e-09
1.05585e-09
1.05616e-09
1.05646e-09
1.05677e-09
1.05708e-09
1.05738e-09
1.05769e-09
1.058e-09
1.0583e-09
1.05861e-09
1.05892e-09
1.05923e-09
1.05954e-09
1.05985e-09
1.06017e-09
1.06048e-09
1.0608e-09
1.0611e-09
1.06144e-09
1.06177e-09
1.06209e-09
1.06241e-09
1.06273e-09
1.06305e-09
1.06337e-09
1.06369e-09
1.06402e-09
1.06434e-09
1.06467e-09
1.06499e-09
1.06534e-09
1.05421e-09
1.05451e-09
1.0548e-09
1.05508e-09
1.05537e-09
1.05565e-09
1.05594e-09
1.05623e-09
1.05651e-09
1.0568e-09
1.05709e-09
1.05738e-09
1.05767e-09
1.05796e-09
1.05825e-09
1.05854e-09
1.05883e-09
1.05912e-09
1.05942e-09
1.05971e-09
1.06001e-09
1.0603e-09
1.0606e-09
1.0609e-09
1.06119e-09
1.06149e-09
1.06179e-09
1.0621e-09
1.0624e-09
1.0627e-09
1.06301e-09
1.06332e-09
1.06362e-09
1.06394e-09
1.05339e-09
1.05366e-09
1.05393e-09
1.05419e-09
1.05445e-09
1.05471e-09
1.05497e-09
1.05523e-09
1.0555e-09
1.05576e-09
1.05603e-09
1.05629e-09
1.05656e-09
1.05682e-09
1.05709e-09
1.05736e-09
1.05763e-09
1.0579e-09
1.05817e-09
1.05844e-09
1.05871e-09
1.05899e-09
1.05926e-09
1.05954e-09
1.05982e-09
1.0601e-09
1.06038e-09
1.06066e-09
1.06095e-09
1.06123e-09
1.06152e-09
1.06181e-09
1.0621e-09
1.0624e-09
1.0525e-09
1.05274e-09
1.05298e-09
1.05321e-09
1.05345e-09
1.05369e-09
1.05392e-09
1.05416e-09
1.0544e-09
1.05464e-09
1.05488e-09
1.05512e-09
1.05536e-09
1.0556e-09
1.05584e-09
1.05608e-09
1.05632e-09
1.05657e-09
1.05681e-09
1.05706e-09
1.05731e-09
1.05756e-09
1.0578e-09
1.05805e-09
1.05831e-09
1.05856e-09
1.05881e-09
1.05907e-09
1.05933e-09
1.05958e-09
1.05984e-09
1.06011e-09
1.06037e-09
1.06064e-09
1.05157e-09
1.05178e-09
1.052e-09
1.05221e-09
1.05242e-09
1.05263e-09
1.05284e-09
1.05305e-09
1.05326e-09
1.05347e-09
1.05368e-09
1.05389e-09
1.05411e-09
1.05432e-09
1.05454e-09
1.05475e-09
1.05497e-09
1.05519e-09
1.05541e-09
1.05563e-09
1.05585e-09
1.05607e-09
1.05629e-09
1.05651e-09
1.05674e-09
1.05697e-09
1.05719e-09
1.05742e-09
1.05765e-09
1.05788e-09
1.05812e-09
1.05835e-09
1.05858e-09
1.05883e-09
1.05063e-09
1.05082e-09
1.051e-09
1.05119e-09
1.05137e-09
1.05155e-09
1.05174e-09
1.05192e-09
1.05211e-09
1.05229e-09
1.05248e-09
1.05266e-09
1.05285e-09
1.05304e-09
1.05323e-09
1.05342e-09
1.05361e-09
1.0538e-09
1.05399e-09
1.05418e-09
1.05437e-09
1.05457e-09
1.05476e-09
1.05496e-09
1.05515e-09
1.05535e-09
1.05555e-09
1.05575e-09
1.05595e-09
1.05615e-09
1.05636e-09
1.05656e-09
1.05677e-09
1.05698e-09
1.04969e-09
1.04985e-09
1.05001e-09
1.05017e-09
1.05033e-09
1.05048e-09
1.05064e-09
1.0508e-09
1.05096e-09
1.05112e-09
1.05128e-09
1.05144e-09
1.0516e-09
1.05176e-09
1.05192e-09
1.05208e-09
1.05224e-09
1.05241e-09
1.05257e-09
1.05274e-09
1.0529e-09
1.05307e-09
1.05323e-09
1.0534e-09
1.05357e-09
1.05374e-09
1.05391e-09
1.05408e-09
1.05425e-09
1.05443e-09
1.0546e-09
1.05478e-09
1.05495e-09
1.05513e-09
1.04877e-09
1.04891e-09
1.04904e-09
1.04917e-09
1.0493e-09
1.04943e-09
1.04956e-09
1.0497e-09
1.04983e-09
1.04996e-09
1.05009e-09
1.05023e-09
1.05036e-09
1.0505e-09
1.05063e-09
1.05077e-09
1.0509e-09
1.05104e-09
1.05118e-09
1.05131e-09
1.05145e-09
1.05159e-09
1.05173e-09
1.05187e-09
1.05201e-09
1.05215e-09
1.0523e-09
1.05244e-09
1.05258e-09
1.05273e-09
1.05288e-09
1.05302e-09
1.05317e-09
1.05332e-09
1.04784e-09
1.04795e-09
1.04806e-09
1.04816e-09
1.04827e-09
1.04837e-09
1.04848e-09
1.04859e-09
1.04869e-09
1.0488e-09
1.04891e-09
1.04901e-09
1.04912e-09
1.04923e-09
1.04934e-09
1.04945e-09
1.04956e-09
1.04967e-09
1.04978e-09
1.04989e-09
1.05e-09
1.05011e-09
1.05022e-09
1.05033e-09
1.05045e-09
1.05056e-09
1.05067e-09
1.05079e-09
1.05092e-09
1.05104e-09
1.05115e-09
1.05127e-09
1.05139e-09
1.05151e-09
1.04692e-09
1.047e-09
1.04708e-09
1.04716e-09
1.04724e-09
1.04732e-09
1.0474e-09
1.04749e-09
1.04757e-09
1.04765e-09
1.04773e-09
1.04781e-09
1.04789e-09
1.04797e-09
1.04806e-09
1.04814e-09
1.04823e-09
1.04832e-09
1.04841e-09
1.04851e-09
1.04861e-09
1.04871e-09
1.04882e-09
1.04894e-09
1.04906e-09
1.04918e-09
1.0493e-09
1.04941e-09
1.04952e-09
1.04963e-09
1.04972e-09
1.04981e-09
1.0499e-09
1.05e-09
1.04591e-09
1.04597e-09
1.04602e-09
1.04607e-09
1.04612e-09
1.04617e-09
1.04622e-09
1.04628e-09
1.04633e-09
1.04638e-09
1.04643e-09
1.04648e-09
1.04654e-09
1.04659e-09
1.04665e-09
1.0467e-09
1.04676e-09
1.04682e-09
1.04688e-09
1.04695e-09
1.04701e-09
1.04708e-09
1.04716e-09
1.04723e-09
1.04732e-09
1.0474e-09
1.04749e-09
1.04758e-09
1.04766e-09
1.04775e-09
1.04782e-09
1.04789e-09
1.04796e-09
1.04802e-09
1.04454e-09
1.04455e-09
1.04457e-09
1.04459e-09
1.0446e-09
1.04462e-09
1.04463e-09
1.04464e-09
1.04464e-09
1.04464e-09
1.04465e-09
1.04465e-09
1.04465e-09
1.04466e-09
1.04467e-09
1.04469e-09
1.0447e-09
1.04472e-09
1.04475e-09
1.04477e-09
1.0448e-09
1.04483e-09
1.04486e-09
1.04489e-09
1.04493e-09
1.04496e-09
1.045e-09
1.04504e-09
1.04508e-09
1.04511e-09
1.04514e-09
1.04516e-09
1.04519e-09
1.0452e-09
1.06625e-09
1.06809e-09
1.06956e-09
1.07082e-09
1.07195e-09
1.07319e-09
1.07449e-09
1.07583e-09
1.07719e-09
1.07855e-09
1.07992e-09
1.08128e-09
1.08266e-09
1.08404e-09
1.08542e-09
1.0868e-09
1.08817e-09
1.08955e-09
1.09094e-09
1.09233e-09
1.09372e-09
1.09511e-09
1.0965e-09
1.09794e-09
1.09914e-09
1.10143e-09
1.06665e-09
1.06785e-09
1.06905e-09
1.07024e-09
1.07124e-09
1.07216e-09
1.07315e-09
1.07418e-09
1.07523e-09
1.07628e-09
1.07733e-09
1.07842e-09
1.07933e-09
1.08028e-09
1.08129e-09
1.08234e-09
1.08339e-09
1.08445e-09
1.08551e-09
1.08657e-09
1.08763e-09
1.08869e-09
1.08974e-09
1.09084e-09
1.09175e-09
1.09347e-09
1.06757e-09
1.06845e-09
1.06973e-09
1.07095e-09
1.07197e-09
1.07284e-09
1.07369e-09
1.07463e-09
1.07562e-09
1.07662e-09
1.07762e-09
1.07864e-09
1.07965e-09
1.08062e-09
1.08163e-09
1.08264e-09
1.08366e-09
1.08469e-09
1.08571e-09
1.08674e-09
1.08776e-09
1.08879e-09
1.08981e-09
1.09088e-09
1.09175e-09
1.09345e-09
1.06698e-09
1.06811e-09
1.06918e-09
1.07032e-09
1.07151e-09
1.07262e-09
1.07364e-09
1.07464e-09
1.07565e-09
1.07671e-09
1.07781e-09
1.07891e-09
1.08002e-09
1.08112e-09
1.08224e-09
1.08335e-09
1.08447e-09
1.08558e-09
1.0867e-09
1.08782e-09
1.08895e-09
1.09007e-09
1.09119e-09
1.09236e-09
1.09331e-09
1.09513e-09
1.06602e-09
1.06705e-09
1.068e-09
1.06906e-09
1.07016e-09
1.07124e-09
1.07222e-09
1.07314e-09
1.07405e-09
1.07501e-09
1.07599e-09
1.07699e-09
1.07798e-09
1.07899e-09
1.07999e-09
1.08099e-09
1.082e-09
1.08301e-09
1.08402e-09
1.08503e-09
1.08604e-09
1.08706e-09
1.08806e-09
1.08912e-09
1.08998e-09
1.09165e-09
1.0646e-09
1.06558e-09
1.06655e-09
1.0675e-09
1.06849e-09
1.06949e-09
1.07048e-09
1.07143e-09
1.07234e-09
1.07323e-09
1.07414e-09
1.07505e-09
1.076e-09
1.07696e-09
1.07793e-09
1.07891e-09
1.07988e-09
1.08086e-09
1.08184e-09
1.08282e-09
1.08381e-09
1.08479e-09
1.08575e-09
1.08675e-09
1.08757e-09
1.08917e-09
1.06299e-09
1.06387e-09
1.06474e-09
1.06561e-09
1.06647e-09
1.06733e-09
1.0682e-09
1.06908e-09
1.06993e-09
1.07075e-09
1.07157e-09
1.07241e-09
1.07326e-09
1.07413e-09
1.075e-09
1.07588e-09
1.07675e-09
1.07763e-09
1.07851e-09
1.07939e-09
1.08027e-09
1.08115e-09
1.08203e-09
1.08294e-09
1.08369e-09
1.08513e-09
1.06118e-09
1.06199e-09
1.06279e-09
1.06359e-09
1.06439e-09
1.06519e-09
1.06598e-09
1.06678e-09
1.06758e-09
1.06838e-09
1.06917e-09
1.06994e-09
1.0707e-09
1.07146e-09
1.07223e-09
1.073e-09
1.07378e-09
1.07456e-09
1.07535e-09
1.07614e-09
1.07693e-09
1.07772e-09
1.0785e-09
1.07931e-09
1.07998e-09
1.08129e-09
1.0593e-09
1.06002e-09
1.06072e-09
1.06143e-09
1.06213e-09
1.06283e-09
1.06354e-09
1.06424e-09
1.06494e-09
1.06564e-09
1.06635e-09
1.06705e-09
1.06774e-09
1.06842e-09
1.06911e-09
1.0698e-09
1.0705e-09
1.07121e-09
1.07192e-09
1.07263e-09
1.07334e-09
1.07405e-09
1.07476e-09
1.07549e-09
1.07609e-09
1.07724e-09
1.0574e-09
1.05803e-09
1.05865e-09
1.05927e-09
1.0599e-09
1.06052e-09
1.06114e-09
1.06176e-09
1.06238e-09
1.063e-09
1.06362e-09
1.06424e-09
1.06486e-09
1.06548e-09
1.06611e-09
1.06673e-09
1.06736e-09
1.06797e-09
1.06858e-09
1.06918e-09
1.06978e-09
1.07039e-09
1.07098e-09
1.07161e-09
1.07213e-09
1.07314e-09
1.05549e-09
1.05603e-09
1.05656e-09
1.05709e-09
1.05762e-09
1.05815e-09
1.05868e-09
1.05921e-09
1.05974e-09
1.06027e-09
1.0608e-09
1.06133e-09
1.06186e-09
1.06239e-09
1.06292e-09
1.06346e-09
1.06399e-09
1.06452e-09
1.06505e-09
1.06558e-09
1.0661e-09
1.06662e-09
1.06713e-09
1.06767e-09
1.06812e-09
1.06899e-09
1.05362e-09
1.05407e-09
1.05452e-09
1.05497e-09
1.05541e-09
1.05586e-09
1.0563e-09
1.05675e-09
1.05719e-09
1.05764e-09
1.05808e-09
1.05853e-09
1.05897e-09
1.05942e-09
1.05986e-09
1.06031e-09
1.06075e-09
1.0612e-09
1.06165e-09
1.06209e-09
1.06254e-09
1.06299e-09
1.06343e-09
1.06389e-09
1.06427e-09
1.06499e-09
1.05175e-09
1.05211e-09
1.05247e-09
1.05283e-09
1.05319e-09
1.05354e-09
1.0539e-09
1.05426e-09
1.05461e-09
1.05497e-09
1.05533e-09
1.05569e-09
1.05604e-09
1.0564e-09
1.05676e-09
1.05712e-09
1.05747e-09
1.05783e-09
1.05819e-09
1.05855e-09
1.05891e-09
1.05927e-09
1.05963e-09
1.06e-09
1.0603e-09
1.06088e-09
1.05018e-09
1.05045e-09
1.05072e-09
1.051e-09
1.05127e-09
1.05154e-09
1.05181e-09
1.05208e-09
1.05236e-09
1.05263e-09
1.0529e-09
1.05317e-09
1.05344e-09
1.05371e-09
1.05399e-09
1.05426e-09
1.05453e-09
1.0548e-09
1.05507e-09
1.05535e-09
1.05562e-09
1.05589e-09
1.05615e-09
1.05643e-09
1.05666e-09
1.0571e-09
1.04814e-09
1.04832e-09
1.0485e-09
1.04867e-09
1.04885e-09
1.04903e-09
1.04921e-09
1.04939e-09
1.04957e-09
1.04975e-09
1.04992e-09
1.0501e-09
1.05028e-09
1.05046e-09
1.05064e-09
1.05081e-09
1.05099e-09
1.05117e-09
1.05135e-09
1.05153e-09
1.0517e-09
1.05188e-09
1.05206e-09
1.05224e-09
1.0524e-09
1.05269e-09
1.0452e-09
1.04525e-09
1.04532e-09
1.04539e-09
1.04546e-09
1.04552e-09
1.04559e-09
1.04567e-09
1.04575e-09
1.04583e-09
1.04592e-09
1.04601e-09
1.0461e-09
1.04619e-09
1.04628e-09
1.04636e-09
1.04644e-09
1.04652e-09
1.0466e-09
1.04668e-09
1.04675e-09
1.04683e-09
1.0469e-09
1.04697e-09
1.04705e-09
1.04708e-09
1.04464e-09
1.04572e-09
1.04681e-09
1.0479e-09
1.04899e-09
1.05008e-09
1.05117e-09
1.05225e-09
1.05335e-09
1.05436e-09
1.04466e-09
1.04579e-09
1.04692e-09
1.04805e-09
1.04919e-09
1.05032e-09
1.05146e-09
1.05258e-09
1.05375e-09
1.0548e-09
1.04466e-09
1.04579e-09
1.04693e-09
1.04807e-09
1.04921e-09
1.05035e-09
1.05149e-09
1.05264e-09
1.05378e-09
1.05492e-09
1.04465e-09
1.04575e-09
1.04686e-09
1.04797e-09
1.04909e-09
1.0502e-09
1.05132e-09
1.05244e-09
1.05355e-09
1.05468e-09
1.04462e-09
1.04568e-09
1.04673e-09
1.04779e-09
1.04885e-09
1.04992e-09
1.05098e-09
1.05205e-09
1.05311e-09
1.0542e-09
1.04459e-09
1.04557e-09
1.04656e-09
1.04755e-09
1.04854e-09
1.04954e-09
1.05053e-09
1.05153e-09
1.05253e-09
1.05354e-09
1.04455e-09
1.04545e-09
1.04636e-09
1.04727e-09
1.04818e-09
1.04909e-09
1.05001e-09
1.05093e-09
1.05184e-09
1.05278e-09
1.0445e-09
1.04532e-09
1.04614e-09
1.04696e-09
1.04779e-09
1.04861e-09
1.04944e-09
1.05027e-09
1.0511e-09
1.05194e-09
1.04446e-09
1.04519e-09
1.04592e-09
1.04665e-09
1.04738e-09
1.04811e-09
1.04885e-09
1.04959e-09
1.05032e-09
1.05108e-09
1.04441e-09
1.04505e-09
1.04569e-09
1.04633e-09
1.04697e-09
1.04761e-09
1.04825e-09
1.0489e-09
1.04954e-09
1.0502e-09
1.04437e-09
1.04491e-09
1.04546e-09
1.04601e-09
1.04656e-09
1.04711e-09
1.04766e-09
1.04821e-09
1.04876e-09
1.04933e-09
1.04432e-09
1.04478e-09
1.04524e-09
1.04569e-09
1.04615e-09
1.04661e-09
1.04707e-09
1.04753e-09
1.04799e-09
1.04846e-09
1.04428e-09
1.04464e-09
1.04501e-09
1.04538e-09
1.04575e-09
1.04612e-09
1.04648e-09
1.04686e-09
1.04722e-09
1.0476e-09
1.04423e-09
1.04451e-09
1.04478e-09
1.04506e-09
1.04534e-09
1.04561e-09
1.04589e-09
1.04617e-09
1.04645e-09
1.04673e-09
1.04418e-09
1.04436e-09
1.04454e-09
1.04471e-09
1.04489e-09
1.04507e-09
1.04525e-09
1.04543e-09
1.04561e-09
1.0458e-09
1.04413e-09
1.04419e-09
1.04425e-09
1.04431e-09
1.04437e-09
1.04442e-09
1.04446e-09
1.04448e-09
1.0445e-09
1.04452e-09
1.05503e-09
1.0553e-09
1.05556e-09
1.0558e-09
1.05604e-09
1.05628e-09
1.05651e-09
1.05675e-09
1.05698e-09
1.05721e-09
1.05745e-09
1.0577e-09
1.05796e-09
1.05824e-09
1.05854e-09
1.05887e-09
1.05924e-09
1.05965e-09
1.06018e-09
1.06094e-09
1.0614e-09
1.06171e-09
1.06196e-09
1.06219e-09
1.06242e-09
1.06264e-09
1.06287e-09
1.0631e-09
1.06334e-09
1.06359e-09
1.06383e-09
1.06412e-09
1.06433e-09
1.0647e-09
1.0555e-09
1.05582e-09
1.05615e-09
1.05648e-09
1.05682e-09
1.05715e-09
1.05748e-09
1.05781e-09
1.05813e-09
1.05844e-09
1.05875e-09
1.05905e-09
1.05935e-09
1.05964e-09
1.05992e-09
1.0602e-09
1.06048e-09
1.06076e-09
1.06104e-09
1.06133e-09
1.06162e-09
1.06191e-09
1.0622e-09
1.06249e-09
1.06278e-09
1.06306e-09
1.06335e-09
1.06363e-09
1.06391e-09
1.06419e-09
1.06445e-09
1.06473e-09
1.06507e-09
1.06564e-09
1.05569e-09
1.05603e-09
1.05636e-09
1.0567e-09
1.05703e-09
1.05735e-09
1.05768e-09
1.05801e-09
1.05833e-09
1.05866e-09
1.05899e-09
1.05931e-09
1.05964e-09
1.05997e-09
1.06029e-09
1.06062e-09
1.06094e-09
1.06127e-09
1.06161e-09
1.06207e-09
1.06262e-09
1.06303e-09
1.06338e-09
1.0637e-09
1.06402e-09
1.06433e-09
1.06464e-09
1.06495e-09
1.06526e-09
1.06557e-09
1.06588e-09
1.06619e-09
1.06648e-09
1.0668e-09
1.05542e-09
1.05576e-09
1.05608e-09
1.05641e-09
1.05673e-09
1.05706e-09
1.05738e-09
1.0577e-09
1.05803e-09
1.05835e-09
1.05868e-09
1.059e-09
1.05933e-09
1.05965e-09
1.05997e-09
1.06029e-09
1.06062e-09
1.06094e-09
1.06126e-09
1.06159e-09
1.06191e-09
1.06224e-09
1.06257e-09
1.0629e-09
1.06323e-09
1.06356e-09
1.06389e-09
1.06422e-09
1.06455e-09
1.06488e-09
1.06521e-09
1.06555e-09
1.06587e-09
1.06622e-09
1.05492e-09
1.05524e-09
1.05554e-09
1.05585e-09
1.05616e-09
1.05646e-09
1.05677e-09
1.05708e-09
1.05738e-09
1.05769e-09
1.058e-09
1.0583e-09
1.05861e-09
1.05892e-09
1.05923e-09
1.05954e-09
1.05985e-09
1.06017e-09
1.06048e-09
1.0608e-09
1.0611e-09
1.06144e-09
1.06177e-09
1.06209e-09
1.06241e-09
1.06273e-09
1.06305e-09
1.06337e-09
1.06369e-09
1.06402e-09
1.06434e-09
1.06467e-09
1.065e-09
1.06534e-09
1.05421e-09
1.05451e-09
1.0548e-09
1.05508e-09
1.05537e-09
1.05565e-09
1.05594e-09
1.05623e-09
1.05651e-09
1.0568e-09
1.05709e-09
1.05738e-09
1.05767e-09
1.05796e-09
1.05825e-09
1.05854e-09
1.05883e-09
1.05912e-09
1.05942e-09
1.05971e-09
1.06001e-09
1.0603e-09
1.0606e-09
1.0609e-09
1.06119e-09
1.06149e-09
1.06179e-09
1.0621e-09
1.0624e-09
1.0627e-09
1.06301e-09
1.06332e-09
1.06362e-09
1.06394e-09
1.05339e-09
1.05366e-09
1.05393e-09
1.05419e-09
1.05445e-09
1.05471e-09
1.05497e-09
1.05523e-09
1.0555e-09
1.05576e-09
1.05603e-09
1.05629e-09
1.05656e-09
1.05682e-09
1.05709e-09
1.05736e-09
1.05763e-09
1.0579e-09
1.05817e-09
1.05844e-09
1.05871e-09
1.05899e-09
1.05926e-09
1.05954e-09
1.05982e-09
1.0601e-09
1.06038e-09
1.06066e-09
1.06095e-09
1.06123e-09
1.06152e-09
1.06181e-09
1.0621e-09
1.0624e-09
1.0525e-09
1.05274e-09
1.05298e-09
1.05321e-09
1.05345e-09
1.05369e-09
1.05392e-09
1.05416e-09
1.0544e-09
1.05464e-09
1.05488e-09
1.05511e-09
1.05536e-09
1.0556e-09
1.05584e-09
1.05608e-09
1.05632e-09
1.05657e-09
1.05681e-09
1.05706e-09
1.05731e-09
1.05756e-09
1.0578e-09
1.05806e-09
1.05831e-09
1.05856e-09
1.05881e-09
1.05907e-09
1.05933e-09
1.05958e-09
1.05984e-09
1.06011e-09
1.06037e-09
1.06064e-09
1.05157e-09
1.05178e-09
1.052e-09
1.05221e-09
1.05242e-09
1.05263e-09
1.05284e-09
1.05305e-09
1.05326e-09
1.05347e-09
1.05368e-09
1.05389e-09
1.05411e-09
1.05432e-09
1.05454e-09
1.05475e-09
1.05497e-09
1.05519e-09
1.05541e-09
1.05563e-09
1.05585e-09
1.05607e-09
1.05629e-09
1.05652e-09
1.05674e-09
1.05697e-09
1.05719e-09
1.05742e-09
1.05765e-09
1.05788e-09
1.05812e-09
1.05835e-09
1.05858e-09
1.05883e-09
1.05063e-09
1.05082e-09
1.051e-09
1.05119e-09
1.05137e-09
1.05155e-09
1.05174e-09
1.05192e-09
1.05211e-09
1.05229e-09
1.05248e-09
1.05266e-09
1.05285e-09
1.05304e-09
1.05323e-09
1.05342e-09
1.05361e-09
1.0538e-09
1.05399e-09
1.05418e-09
1.05437e-09
1.05457e-09
1.05476e-09
1.05496e-09
1.05515e-09
1.05535e-09
1.05555e-09
1.05575e-09
1.05595e-09
1.05615e-09
1.05636e-09
1.05656e-09
1.05677e-09
1.05698e-09
1.04969e-09
1.04985e-09
1.05001e-09
1.05017e-09
1.05033e-09
1.05048e-09
1.05064e-09
1.0508e-09
1.05096e-09
1.05112e-09
1.05128e-09
1.05144e-09
1.0516e-09
1.05176e-09
1.05192e-09
1.05208e-09
1.05224e-09
1.05241e-09
1.05257e-09
1.05274e-09
1.0529e-09
1.05307e-09
1.05323e-09
1.0534e-09
1.05357e-09
1.05374e-09
1.05391e-09
1.05408e-09
1.05425e-09
1.05443e-09
1.0546e-09
1.05478e-09
1.05495e-09
1.05513e-09
1.04877e-09
1.04891e-09
1.04904e-09
1.04917e-09
1.0493e-09
1.04943e-09
1.04956e-09
1.0497e-09
1.04983e-09
1.04996e-09
1.05009e-09
1.05023e-09
1.05036e-09
1.0505e-09
1.05063e-09
1.05077e-09
1.0509e-09
1.05104e-09
1.05118e-09
1.05131e-09
1.05145e-09
1.05159e-09
1.05173e-09
1.05187e-09
1.05201e-09
1.05215e-09
1.0523e-09
1.05244e-09
1.05258e-09
1.05273e-09
1.05288e-09
1.05302e-09
1.05317e-09
1.05332e-09
1.04784e-09
1.04795e-09
1.04806e-09
1.04816e-09
1.04827e-09
1.04837e-09
1.04848e-09
1.04859e-09
1.04869e-09
1.0488e-09
1.04891e-09
1.04901e-09
1.04912e-09
1.04923e-09
1.04934e-09
1.04945e-09
1.04956e-09
1.04967e-09
1.04978e-09
1.04989e-09
1.05e-09
1.05011e-09
1.05022e-09
1.05033e-09
1.05045e-09
1.05056e-09
1.05067e-09
1.05079e-09
1.05092e-09
1.05104e-09
1.05115e-09
1.05127e-09
1.05139e-09
1.05151e-09
1.04692e-09
1.047e-09
1.04708e-09
1.04716e-09
1.04724e-09
1.04732e-09
1.0474e-09
1.04749e-09
1.04757e-09
1.04765e-09
1.04773e-09
1.04781e-09
1.04789e-09
1.04797e-09
1.04806e-09
1.04814e-09
1.04823e-09
1.04832e-09
1.04841e-09
1.04851e-09
1.04861e-09
1.04871e-09
1.04882e-09
1.04894e-09
1.04906e-09
1.04918e-09
1.0493e-09
1.04941e-09
1.04952e-09
1.04963e-09
1.04972e-09
1.04981e-09
1.0499e-09
1.05e-09
1.04591e-09
1.04597e-09
1.04602e-09
1.04607e-09
1.04612e-09
1.04617e-09
1.04622e-09
1.04628e-09
1.04633e-09
1.04638e-09
1.04643e-09
1.04648e-09
1.04654e-09
1.04659e-09
1.04665e-09
1.0467e-09
1.04676e-09
1.04682e-09
1.04688e-09
1.04695e-09
1.04701e-09
1.04708e-09
1.04716e-09
1.04723e-09
1.04732e-09
1.0474e-09
1.04749e-09
1.04758e-09
1.04766e-09
1.04775e-09
1.04782e-09
1.04789e-09
1.04796e-09
1.04802e-09
1.04454e-09
1.04455e-09
1.04457e-09
1.04459e-09
1.0446e-09
1.04462e-09
1.04463e-09
1.04464e-09
1.04464e-09
1.04464e-09
1.04465e-09
1.04465e-09
1.04465e-09
1.04466e-09
1.04467e-09
1.04469e-09
1.0447e-09
1.04472e-09
1.04475e-09
1.04477e-09
1.0448e-09
1.04483e-09
1.04486e-09
1.04489e-09
1.04493e-09
1.04496e-09
1.045e-09
1.04504e-09
1.04508e-09
1.04511e-09
1.04514e-09
1.04516e-09
1.04519e-09
1.0452e-09
1.06625e-09
1.06809e-09
1.06956e-09
1.07082e-09
1.07195e-09
1.07319e-09
1.0745e-09
1.07584e-09
1.07719e-09
1.07855e-09
1.07992e-09
1.08128e-09
1.08266e-09
1.08405e-09
1.08543e-09
1.0868e-09
1.08818e-09
1.08956e-09
1.09094e-09
1.09233e-09
1.09372e-09
1.09512e-09
1.0965e-09
1.09795e-09
1.09914e-09
1.10143e-09
1.06665e-09
1.06785e-09
1.06905e-09
1.07024e-09
1.07125e-09
1.07216e-09
1.07315e-09
1.07418e-09
1.07523e-09
1.07629e-09
1.07733e-09
1.07842e-09
1.07933e-09
1.08028e-09
1.08129e-09
1.08234e-09
1.08339e-09
1.08445e-09
1.08551e-09
1.08657e-09
1.08763e-09
1.08869e-09
1.08975e-09
1.09085e-09
1.09175e-09
1.09348e-09
1.06757e-09
1.06845e-09
1.06974e-09
1.07095e-09
1.07197e-09
1.07284e-09
1.07369e-09
1.07463e-09
1.07562e-09
1.07662e-09
1.07763e-09
1.07864e-09
1.07965e-09
1.08062e-09
1.08163e-09
1.08265e-09
1.08367e-09
1.08469e-09
1.08571e-09
1.08674e-09
1.08776e-09
1.08879e-09
1.08981e-09
1.09088e-09
1.09176e-09
1.09345e-09
1.06698e-09
1.06812e-09
1.06918e-09
1.07032e-09
1.07152e-09
1.07262e-09
1.07364e-09
1.07464e-09
1.07565e-09
1.07672e-09
1.07781e-09
1.07891e-09
1.08002e-09
1.08113e-09
1.08224e-09
1.08335e-09
1.08447e-09
1.08559e-09
1.08671e-09
1.08783e-09
1.08895e-09
1.09008e-09
1.09119e-09
1.09236e-09
1.09331e-09
1.09514e-09
1.06602e-09
1.06705e-09
1.068e-09
1.06906e-09
1.07016e-09
1.07124e-09
1.07222e-09
1.07314e-09
1.07405e-09
1.07501e-09
1.07599e-09
1.07699e-09
1.07799e-09
1.07899e-09
1.07999e-09
1.081e-09
1.082e-09
1.08301e-09
1.08402e-09
1.08503e-09
1.08604e-09
1.08706e-09
1.08807e-09
1.08912e-09
1.08998e-09
1.09165e-09
1.0646e-09
1.06558e-09
1.06655e-09
1.0675e-09
1.06849e-09
1.06949e-09
1.07048e-09
1.07143e-09
1.07234e-09
1.07323e-09
1.07414e-09
1.07505e-09
1.076e-09
1.07696e-09
1.07793e-09
1.07891e-09
1.07988e-09
1.08086e-09
1.08184e-09
1.08282e-09
1.08381e-09
1.08479e-09
1.08575e-09
1.08676e-09
1.08758e-09
1.08917e-09
1.06299e-09
1.06387e-09
1.06474e-09
1.06561e-09
1.06647e-09
1.06733e-09
1.0682e-09
1.06908e-09
1.06993e-09
1.07076e-09
1.07157e-09
1.07241e-09
1.07326e-09
1.07413e-09
1.075e-09
1.07588e-09
1.07676e-09
1.07763e-09
1.07851e-09
1.07939e-09
1.08027e-09
1.08115e-09
1.08203e-09
1.08295e-09
1.0837e-09
1.08513e-09
1.06118e-09
1.06199e-09
1.06279e-09
1.06359e-09
1.06439e-09
1.06519e-09
1.06598e-09
1.06678e-09
1.06758e-09
1.06838e-09
1.06917e-09
1.06994e-09
1.0707e-09
1.07146e-09
1.07223e-09
1.073e-09
1.07378e-09
1.07457e-09
1.07535e-09
1.07614e-09
1.07693e-09
1.07772e-09
1.0785e-09
1.07931e-09
1.07998e-09
1.08129e-09
1.0593e-09
1.06002e-09
1.06072e-09
1.06143e-09
1.06213e-09
1.06283e-09
1.06354e-09
1.06424e-09
1.06494e-09
1.06564e-09
1.06635e-09
1.06705e-09
1.06774e-09
1.06843e-09
1.06911e-09
1.0698e-09
1.0705e-09
1.07121e-09
1.07192e-09
1.07263e-09
1.07334e-09
1.07405e-09
1.07476e-09
1.07549e-09
1.07609e-09
1.07724e-09
1.0574e-09
1.05803e-09
1.05865e-09
1.05927e-09
1.0599e-09
1.06052e-09
1.06114e-09
1.06176e-09
1.06238e-09
1.063e-09
1.06362e-09
1.06424e-09
1.06486e-09
1.06548e-09
1.06611e-09
1.06673e-09
1.06736e-09
1.06797e-09
1.06858e-09
1.06918e-09
1.06978e-09
1.07039e-09
1.07098e-09
1.07161e-09
1.07213e-09
1.07314e-09
1.05549e-09
1.05603e-09
1.05656e-09
1.05709e-09
1.05762e-09
1.05815e-09
1.05868e-09
1.05921e-09
1.05974e-09
1.06027e-09
1.0608e-09
1.06133e-09
1.06186e-09
1.06239e-09
1.06293e-09
1.06346e-09
1.06399e-09
1.06452e-09
1.06505e-09
1.06558e-09
1.0661e-09
1.06662e-09
1.06713e-09
1.06768e-09
1.06812e-09
1.06899e-09
1.05362e-09
1.05407e-09
1.05452e-09
1.05497e-09
1.05541e-09
1.05586e-09
1.0563e-09
1.05675e-09
1.05719e-09
1.05764e-09
1.05808e-09
1.05853e-09
1.05897e-09
1.05942e-09
1.05986e-09
1.06031e-09
1.06075e-09
1.0612e-09
1.06165e-09
1.06209e-09
1.06254e-09
1.06299e-09
1.06343e-09
1.06389e-09
1.06427e-09
1.06499e-09
1.05175e-09
1.05211e-09
1.05247e-09
1.05283e-09
1.05319e-09
1.05354e-09
1.0539e-09
1.05426e-09
1.05462e-09
1.05497e-09
1.05533e-09
1.05569e-09
1.05604e-09
1.0564e-09
1.05676e-09
1.05712e-09
1.05747e-09
1.05783e-09
1.05819e-09
1.05855e-09
1.05891e-09
1.05927e-09
1.05963e-09
1.06e-09
1.0603e-09
1.06088e-09
1.05018e-09
1.05045e-09
1.05072e-09
1.051e-09
1.05127e-09
1.05154e-09
1.05181e-09
1.05208e-09
1.05236e-09
1.05263e-09
1.0529e-09
1.05317e-09
1.05344e-09
1.05371e-09
1.05399e-09
1.05426e-09
1.05453e-09
1.0548e-09
1.05507e-09
1.05535e-09
1.05562e-09
1.05589e-09
1.05615e-09
1.05643e-09
1.05666e-09
1.0571e-09
1.04814e-09
1.04832e-09
1.0485e-09
1.04867e-09
1.04885e-09
1.04903e-09
1.04921e-09
1.04939e-09
1.04957e-09
1.04975e-09
1.04992e-09
1.0501e-09
1.05028e-09
1.05046e-09
1.05064e-09
1.05081e-09
1.05099e-09
1.05117e-09
1.05135e-09
1.05153e-09
1.0517e-09
1.05188e-09
1.05206e-09
1.05224e-09
1.0524e-09
1.05269e-09
1.0452e-09
1.04525e-09
1.04532e-09
1.04539e-09
1.04546e-09
1.04552e-09
1.04559e-09
1.04567e-09
1.04575e-09
1.04583e-09
1.04592e-09
1.04601e-09
1.0461e-09
1.04619e-09
1.04628e-09
1.04636e-09
1.04644e-09
1.04652e-09
1.0466e-09
1.04668e-09
1.04675e-09
1.04683e-09
1.0469e-09
1.04697e-09
1.04705e-09
1.04708e-09
1.04461e-09
1.04565e-09
1.04669e-09
1.04773e-09
1.04877e-09
1.04981e-09
1.05083e-09
1.05191e-09
1.0528e-09
1.05414e-09
1.04459e-09
1.0456e-09
1.0466e-09
1.04761e-09
1.04861e-09
1.04961e-09
1.05061e-09
1.05162e-09
1.05252e-09
1.05381e-09
1.04457e-09
1.04554e-09
1.0465e-09
1.04747e-09
1.04843e-09
1.0494e-09
1.05035e-09
1.05131e-09
1.05221e-09
1.05335e-09
1.04455e-09
1.04547e-09
1.04639e-09
1.04732e-09
1.04824e-09
1.04915e-09
1.05007e-09
1.05097e-09
1.05189e-09
1.05284e-09
1.04453e-09
1.0454e-09
1.04628e-09
1.04715e-09
1.04802e-09
1.04889e-09
1.04977e-09
1.05059e-09
1.05153e-09
1.0523e-09
1.0445e-09
1.04532e-09
1.04615e-09
1.04697e-09
1.04779e-09
1.0486e-09
1.04944e-09
1.05018e-09
1.05113e-09
1.0517e-09
1.04448e-09
1.04524e-09
1.04601e-09
1.04677e-09
1.04754e-09
1.0483e-09
1.04908e-09
1.04975e-09
1.05071e-09
1.05105e-09
1.04445e-09
1.04515e-09
1.04586e-09
1.04657e-09
1.04727e-09
1.04797e-09
1.0487e-09
1.04929e-09
1.05023e-09
1.05047e-09
1.04442e-09
1.04506e-09
1.0457e-09
1.04634e-09
1.04699e-09
1.04762e-09
1.04829e-09
1.04881e-09
1.04966e-09
1.05005e-09
1.04438e-09
1.04496e-09
1.04553e-09
1.04611e-09
1.04669e-09
1.04725e-09
1.04785e-09
1.04832e-09
1.04907e-09
1.04959e-09
1.04435e-09
1.04485e-09
1.04536e-09
1.04587e-09
1.04637e-09
1.04687e-09
1.0474e-09
1.0478e-09
1.04846e-09
1.04906e-09
1.04431e-09
1.04474e-09
1.04518e-09
1.04561e-09
1.04605e-09
1.04647e-09
1.04692e-09
1.04726e-09
1.04782e-09
1.04846e-09
1.04427e-09
1.04463e-09
1.04499e-09
1.04535e-09
1.04571e-09
1.04605e-09
1.04643e-09
1.04671e-09
1.04717e-09
1.04779e-09
1.04423e-09
1.04452e-09
1.0448e-09
1.04508e-09
1.04536e-09
1.04563e-09
1.04593e-09
1.04614e-09
1.0465e-09
1.04706e-09
1.0442e-09
1.0444e-09
1.0446e-09
1.0448e-09
1.045e-09
1.0452e-09
1.04541e-09
1.04556e-09
1.04582e-09
1.04627e-09
1.04416e-09
1.04428e-09
1.0444e-09
1.04452e-09
1.04464e-09
1.04476e-09
1.04489e-09
1.04498e-09
1.04513e-09
1.04542e-09
1.04412e-09
1.04416e-09
1.0442e-09
1.04424e-09
1.04428e-09
1.04432e-09
1.04436e-09
1.04439e-09
1.04445e-09
1.04455e-09
1.04412e-09
1.04416e-09
1.0442e-09
1.04424e-09
1.04428e-09
1.04432e-09
1.04436e-09
1.04439e-09
1.04445e-09
1.04455e-09
1.04416e-09
1.04428e-09
1.0444e-09
1.04452e-09
1.04464e-09
1.04476e-09
1.04489e-09
1.04498e-09
1.04513e-09
1.04542e-09
1.0442e-09
1.0444e-09
1.0446e-09
1.0448e-09
1.045e-09
1.0452e-09
1.04541e-09
1.04556e-09
1.04582e-09
1.04626e-09
1.04423e-09
1.04452e-09
1.0448e-09
1.04508e-09
1.04536e-09
1.04563e-09
1.04593e-09
1.04614e-09
1.0465e-09
1.04706e-09