/*--------------------------------*- C++ -*----------------------------------*\
| =========                 |                                                 |
| \\      /  F ield         | OpenFOAM: The Open Source CFD Toolbox           |
|  \\    /   O peration     | Version:  2412                                  |
|   \\  /    A nd           | Website:  www.openfoam.com                      |
|    \\/     M anipulation  |                                                 |
\*---------------------------------------------------------------------------*/
FoamFile
{
    version     2.0;
    format      ascii;
    arch        "LSB;label=32;scalar=64";
    class       volScalarField;
    location    "1500";
    object      nuTilda;
}
// * * * * * * * * * * * * * * * * * * * * * * * * * * * * * * * * * * * * * //

dimensions      [0 2 -1 0 0 0 0];

internalField   nonuniform List<scalar> 
6320
(
5.84076e-06
5.84227e-06
5.84379e-06
5.84531e-06
5.84683e-06
5.84835e-06
5.84987e-06
5.85137e-06
5.85291e-06
5.85431e-06
5.84079e-06
5.84236e-06
5.84395e-06
5.84553e-06
5.84711e-06
5.84869e-06
5.85027e-06
5.85183e-06
5.85345e-06
5.85491e-06
5.84079e-06
5.84237e-06
5.84396e-06
5.84555e-06
5.84714e-06
5.84873e-06
5.85032e-06
5.85191e-06
5.8535e-06
5.85508e-06
5.84077e-06
5.84232e-06
5.84387e-06
5.84541e-06
5.84697e-06
5.84852e-06
5.85007e-06
5.85163e-06
5.85318e-06
5.85474e-06
5.84074e-06
5.84221e-06
5.84368e-06
5.84516e-06
5.84664e-06
5.84812e-06
5.8496e-06
5.85109e-06
5.85257e-06
5.85408e-06
5.84069e-06
5.84207e-06
5.84344e-06
5.84483e-06
5.84621e-06
5.84759e-06
5.84898e-06
5.85037e-06
5.85175e-06
5.85317e-06
5.84063e-06
5.8419e-06
5.84317e-06
5.84443e-06
5.8457e-06
5.84698e-06
5.84825e-06
5.84953e-06
5.8508e-06
5.8521e-06
5.84057e-06
5.84172e-06
5.84286e-06
5.84401e-06
5.84516e-06
5.84631e-06
5.84746e-06
5.84862e-06
5.84977e-06
5.85094e-06
5.84051e-06
5.84153e-06
5.84255e-06
5.84357e-06
5.84459e-06
5.84561e-06
5.84664e-06
5.84767e-06
5.84869e-06
5.84974e-06
5.84045e-06
5.84134e-06
5.84223e-06
5.84312e-06
5.84401e-06
5.84491e-06
5.84581e-06
5.84671e-06
5.8476e-06
5.84852e-06
5.84038e-06
5.84115e-06
5.84191e-06
5.84268e-06
5.84344e-06
5.84421e-06
5.84498e-06
5.84575e-06
5.84652e-06
5.8473e-06
5.84032e-06
5.84096e-06
5.8416e-06
5.84223e-06
5.84287e-06
5.84352e-06
5.84416e-06
5.8448e-06
5.84544e-06
5.8461e-06
5.84026e-06
5.84077e-06
5.84128e-06
5.84179e-06
5.84231e-06
5.84282e-06
5.84334e-06
5.84386e-06
5.84437e-06
5.8449e-06
5.84019e-06
5.84058e-06
5.84096e-06
5.84135e-06
5.84174e-06
5.84212e-06
5.84251e-06
5.8429e-06
5.84329e-06
5.84369e-06
5.84012e-06
5.84037e-06
5.84062e-06
5.84087e-06
5.84112e-06
5.84137e-06
5.84162e-06
5.84187e-06
5.84212e-06
5.84238e-06
5.84004e-06
5.84013e-06
5.84022e-06
5.84031e-06
5.84039e-06
5.84045e-06
5.84051e-06
5.84054e-06
5.84057e-06
5.84059e-06
5.85524e-06
5.85561e-06
5.85596e-06
5.8563e-06
5.85664e-06
5.85696e-06
5.85729e-06
5.85762e-06
5.85794e-06
5.85826e-06
5.85859e-06
5.85893e-06
5.85929e-06
5.85968e-06
5.8601e-06
5.86055e-06
5.86106e-06
5.86164e-06
5.86236e-06
5.86342e-06
5.86406e-06
5.86448e-06
5.86483e-06
5.86514e-06
5.86545e-06
5.86576e-06
5.86608e-06
5.8664e-06
5.86672e-06
5.86707e-06
5.86741e-06
5.86781e-06
5.86809e-06
5.86861e-06
5.85588e-06
5.85633e-06
5.85679e-06
5.85725e-06
5.85771e-06
5.85817e-06
5.85863e-06
5.85908e-06
5.85953e-06
5.85996e-06
5.86039e-06
5.86081e-06
5.86122e-06
5.86162e-06
5.86201e-06
5.8624e-06
5.86279e-06
5.86317e-06
5.86356e-06
5.86396e-06
5.86436e-06
5.86476e-06
5.86516e-06
5.86556e-06
5.86595e-06
5.86635e-06
5.86674e-06
5.86713e-06
5.86752e-06
5.8679e-06
5.86826e-06
5.86865e-06
5.86912e-06
5.8699e-06
5.85615e-06
5.85662e-06
5.85708e-06
5.85754e-06
5.858e-06
5.85846e-06
5.85891e-06
5.85936e-06
5.85981e-06
5.86026e-06
5.86071e-06
5.86117e-06
5.86162e-06
5.86207e-06
5.86252e-06
5.86298e-06
5.86342e-06
5.86388e-06
5.86434e-06
5.86498e-06
5.86573e-06
5.8663e-06
5.86678e-06
5.86723e-06
5.86766e-06
5.8681e-06
5.86852e-06
5.86895e-06
5.86938e-06
5.86981e-06
5.87023e-06
5.87066e-06
5.87106e-06
5.87149e-06
5.85578e-06
5.85624e-06
5.85669e-06
5.85714e-06
5.85759e-06
5.85804e-06
5.85849e-06
5.85894e-06
5.85939e-06
5.85984e-06
5.86029e-06
5.86074e-06
5.86118e-06
5.86163e-06
5.86208e-06
5.86252e-06
5.86297e-06
5.86341e-06
5.86386e-06
5.86431e-06
5.86476e-06
5.86521e-06
5.86566e-06
5.86612e-06
5.86657e-06
5.86703e-06
5.86748e-06
5.86794e-06
5.86839e-06
5.86885e-06
5.86931e-06
5.86977e-06
5.87021e-06
5.8707e-06
5.85508e-06
5.85552e-06
5.85595e-06
5.85637e-06
5.8568e-06
5.85722e-06
5.85765e-06
5.85807e-06
5.85849e-06
5.85892e-06
5.85934e-06
5.85977e-06
5.8602e-06
5.86062e-06
5.86105e-06
5.86148e-06
5.86191e-06
5.86235e-06
5.86278e-06
5.86322e-06
5.86364e-06
5.86411e-06
5.86456e-06
5.865e-06
5.86544e-06
5.86588e-06
5.86633e-06
5.86677e-06
5.86722e-06
5.86766e-06
5.86811e-06
5.86857e-06
5.86901e-06
5.86948e-06
5.8541e-06
5.85451e-06
5.85491e-06
5.8553e-06
5.8557e-06
5.8561e-06
5.85649e-06
5.85689e-06
5.85729e-06
5.85769e-06
5.85809e-06
5.85849e-06
5.85889e-06
5.85929e-06
5.85969e-06
5.8601e-06
5.8605e-06
5.86091e-06
5.86131e-06
5.86172e-06
5.86213e-06
5.86253e-06
5.86294e-06
5.86336e-06
5.86377e-06
5.86418e-06
5.8646e-06
5.86501e-06
5.86543e-06
5.86585e-06
5.86627e-06
5.8667e-06
5.86712e-06
5.86756e-06
5.85296e-06
5.85333e-06
5.8537e-06
5.85406e-06
5.85443e-06
5.85479e-06
5.85515e-06
5.85552e-06
5.85588e-06
5.85625e-06
5.85661e-06
5.85698e-06
5.85735e-06
5.85772e-06
5.85809e-06
5.85846e-06
5.85883e-06
5.85921e-06
5.85958e-06
5.85996e-06
5.86034e-06
5.86072e-06
5.8611e-06
5.86148e-06
5.86187e-06
5.86226e-06
5.86264e-06
5.86303e-06
5.86343e-06
5.86382e-06
5.86422e-06
5.86462e-06
5.86502e-06
5.86543e-06
5.85172e-06
5.85205e-06
5.85238e-06
5.85271e-06
5.85304e-06
5.85337e-06
5.8537e-06
5.85403e-06
5.85436e-06
5.85469e-06
5.85502e-06
5.85535e-06
5.85568e-06
5.85602e-06
5.85635e-06
5.85669e-06
5.85703e-06
5.85737e-06
5.85771e-06
5.85805e-06
5.85839e-06
5.85873e-06
5.85908e-06
5.85943e-06
5.85977e-06
5.86012e-06
5.86048e-06
5.86083e-06
5.86118e-06
5.86154e-06
5.8619e-06
5.86226e-06
5.86262e-06
5.863e-06
5.85043e-06
5.85072e-06
5.85102e-06
5.85131e-06
5.8516e-06
5.85189e-06
5.85219e-06
5.85248e-06
5.85277e-06
5.85307e-06
5.85336e-06
5.85366e-06
5.85395e-06
5.85425e-06
5.85455e-06
5.85485e-06
5.85515e-06
5.85545e-06
5.85576e-06
5.85606e-06
5.85637e-06
5.85667e-06
5.85698e-06
5.85729e-06
5.8576e-06
5.85792e-06
5.85823e-06
5.85855e-06
5.85887e-06
5.85919e-06
5.85951e-06
5.85983e-06
5.86016e-06
5.86049e-06
5.84912e-06
5.84938e-06
5.84964e-06
5.84989e-06
5.85015e-06
5.8504e-06
5.85066e-06
5.85092e-06
5.85117e-06
5.85143e-06
5.85169e-06
5.85195e-06
5.85221e-06
5.85247e-06
5.85273e-06
5.85299e-06
5.85325e-06
5.85352e-06
5.85378e-06
5.85405e-06
5.85432e-06
5.85459e-06
5.85486e-06
5.85513e-06
5.8554e-06
5.85568e-06
5.85595e-06
5.85623e-06
5.85651e-06
5.85679e-06
5.85707e-06
5.85736e-06
5.85764e-06
5.85794e-06
5.84781e-06
5.84804e-06
5.84826e-06
5.84848e-06
5.8487e-06
5.84891e-06
5.84913e-06
5.84935e-06
5.84957e-06
5.8498e-06
5.85002e-06
5.85024e-06
5.85046e-06
5.85069e-06
5.85091e-06
5.85114e-06
5.85136e-06
5.85159e-06
5.85182e-06
5.85205e-06
5.85228e-06
5.85251e-06
5.85274e-06
5.85297e-06
5.85321e-06
5.85344e-06
5.85368e-06
5.85392e-06
5.85415e-06
5.85439e-06
5.85464e-06
5.85488e-06
5.85512e-06
5.85538e-06
5.84653e-06
5.84672e-06
5.8469e-06
5.84708e-06
5.84727e-06
5.84745e-06
5.84763e-06
5.84782e-06
5.848e-06
5.84819e-06
5.84837e-06
5.84856e-06
5.84874e-06
5.84893e-06
5.84912e-06
5.84931e-06
5.8495e-06
5.84969e-06
5.84988e-06
5.85007e-06
5.85026e-06
5.85045e-06
5.85065e-06
5.85084e-06
5.85104e-06
5.85124e-06
5.85144e-06
5.85164e-06
5.85184e-06
5.85204e-06
5.85224e-06
5.85245e-06
5.85265e-06
5.85286e-06
5.84524e-06
5.84539e-06
5.84553e-06
5.84568e-06
5.84583e-06
5.84598e-06
5.84612e-06
5.84627e-06
5.84642e-06
5.84657e-06
5.84672e-06
5.84687e-06
5.84702e-06
5.84717e-06
5.84732e-06
5.84747e-06
5.84762e-06
5.84778e-06
5.84793e-06
5.84808e-06
5.84824e-06
5.84839e-06
5.84855e-06
5.8487e-06
5.84886e-06
5.84902e-06
5.84918e-06
5.84934e-06
5.84952e-06
5.84968e-06
5.84985e-06
5.85001e-06
5.85017e-06
5.85034e-06
5.84395e-06
5.84406e-06
5.84418e-06
5.84429e-06
5.8444e-06
5.84451e-06
5.84462e-06
5.84473e-06
5.84485e-06
5.84496e-06
5.84507e-06
5.84519e-06
5.8453e-06
5.84542e-06
5.84553e-06
5.84565e-06
5.84577e-06
5.8459e-06
5.84603e-06
5.84616e-06
5.8463e-06
5.84645e-06
5.8466e-06
5.84676e-06
5.84693e-06
5.84709e-06
5.84726e-06
5.84742e-06
5.84757e-06
5.84772e-06
5.84786e-06
5.84798e-06
5.84811e-06
5.84823e-06
5.84254e-06
5.84261e-06
5.84269e-06
5.84276e-06
5.84283e-06
5.8429e-06
5.84297e-06
5.84305e-06
5.84312e-06
5.84319e-06
5.84327e-06
5.84334e-06
5.84341e-06
5.84349e-06
5.84356e-06
5.84364e-06
5.84372e-06
5.84381e-06
5.84389e-06
5.84398e-06
5.84408e-06
5.84417e-06
5.84428e-06
5.84438e-06
5.8445e-06
5.84462e-06
5.84475e-06
5.84487e-06
5.84499e-06
5.8451e-06
5.84521e-06
5.84531e-06
5.84539e-06
5.84548e-06
5.84062e-06
5.84064e-06
5.84067e-06
5.84069e-06
5.84071e-06
5.84073e-06
5.84074e-06
5.84075e-06
5.84076e-06
5.84077e-06
5.84077e-06
5.84077e-06
5.84078e-06
5.84079e-06
5.84081e-06
5.84083e-06
5.84085e-06
5.84088e-06
5.84091e-06
5.84094e-06
5.84098e-06
5.84102e-06
5.84107e-06
5.84111e-06
5.84116e-06
5.84122e-06
5.84127e-06
5.84132e-06
5.84137e-06
5.84142e-06
5.84146e-06
5.84149e-06
5.84153e-06
5.84155e-06
5.87073e-06
5.87327e-06
5.87529e-06
5.87703e-06
5.87857e-06
5.88027e-06
5.88206e-06
5.88389e-06
5.88574e-06
5.8876e-06
5.88946e-06
5.89132e-06
5.8932e-06
5.89508e-06
5.89696e-06
5.89883e-06
5.90069e-06
5.90256e-06
5.90444e-06
5.90631e-06
5.90819e-06
5.91008e-06
5.91195e-06
5.9139e-06
5.9155e-06
5.91858e-06
5.87129e-06
5.87294e-06
5.8746e-06
5.87622e-06
5.8776e-06
5.87886e-06
5.88022e-06
5.88163e-06
5.88306e-06
5.88451e-06
5.88594e-06
5.88742e-06
5.88867e-06
5.88996e-06
5.89134e-06
5.89276e-06
5.8942e-06
5.89564e-06
5.89707e-06
5.89851e-06
5.89995e-06
5.90139e-06
5.90282e-06
5.90431e-06
5.90553e-06
5.90786e-06
5.87255e-06
5.87376e-06
5.87553e-06
5.8772e-06
5.8786e-06
5.8798e-06
5.88096e-06
5.88225e-06
5.88359e-06
5.88496e-06
5.88634e-06
5.88772e-06
5.8891e-06
5.89043e-06
5.8918e-06
5.89318e-06
5.89457e-06
5.89596e-06
5.89735e-06
5.89874e-06
5.90013e-06
5.90153e-06
5.90291e-06
5.90436e-06
5.90554e-06
5.90783e-06
5.87175e-06
5.87331e-06
5.87477e-06
5.87634e-06
5.87797e-06
5.87949e-06
5.88089e-06
5.88226e-06
5.88364e-06
5.88509e-06
5.88659e-06
5.88809e-06
5.8896e-06
5.89111e-06
5.89262e-06
5.89414e-06
5.89566e-06
5.89718e-06
5.8987e-06
5.90022e-06
5.90174e-06
5.90327e-06
5.90477e-06
5.90636e-06
5.90764e-06
5.9101e-06
5.87043e-06
5.87184e-06
5.87315e-06
5.87461e-06
5.87612e-06
5.87759e-06
5.87894e-06
5.8802e-06
5.88144e-06
5.88276e-06
5.8841e-06
5.88546e-06
5.88683e-06
5.8882e-06
5.88956e-06
5.89093e-06
5.89231e-06
5.89368e-06
5.89505e-06
5.89643e-06
5.8978e-06
5.89918e-06
5.90054e-06
5.90197e-06
5.90314e-06
5.90539e-06
5.86847e-06
5.86982e-06
5.87116e-06
5.87246e-06
5.87382e-06
5.87519e-06
5.87655e-06
5.87786e-06
5.87911e-06
5.88033e-06
5.88157e-06
5.88282e-06
5.88411e-06
5.88543e-06
5.88676e-06
5.88809e-06
5.88942e-06
5.89075e-06
5.89209e-06
5.89342e-06
5.89476e-06
5.8961e-06
5.89741e-06
5.89877e-06
5.89988e-06
5.90204e-06
5.86625e-06
5.86746e-06
5.86866e-06
5.86985e-06
5.87104e-06
5.87223e-06
5.87342e-06
5.87463e-06
5.8758e-06
5.87693e-06
5.87805e-06
5.8792e-06
5.88037e-06
5.88156e-06
5.88275e-06
5.88395e-06
5.88515e-06
5.88635e-06
5.88755e-06
5.88875e-06
5.88995e-06
5.89115e-06
5.89234e-06
5.89359e-06
5.89461e-06
5.89656e-06
5.86375e-06
5.86486e-06
5.86597e-06
5.86707e-06
5.86818e-06
5.86927e-06
5.87037e-06
5.87147e-06
5.87257e-06
5.87367e-06
5.87476e-06
5.87582e-06
5.87686e-06
5.8779e-06
5.87895e-06
5.88001e-06
5.88108e-06
5.88215e-06
5.88323e-06
5.88431e-06
5.88539e-06
5.88646e-06
5.88753e-06
5.88864e-06
5.88956e-06
5.89134e-06
5.86115e-06
5.86214e-06
5.86312e-06
5.86409e-06
5.86506e-06
5.86603e-06
5.867e-06
5.86797e-06
5.86894e-06
5.86991e-06
5.87088e-06
5.87185e-06
5.87279e-06
5.87373e-06
5.87467e-06
5.87562e-06
5.87658e-06
5.87755e-06
5.87853e-06
5.8795e-06
5.88048e-06
5.88145e-06
5.88241e-06
5.88342e-06
5.88424e-06
5.88581e-06
5.85851e-06
5.85939e-06
5.86025e-06
5.86111e-06
5.86197e-06
5.86283e-06
5.86369e-06
5.86454e-06
5.8654e-06
5.86626e-06
5.86711e-06
5.86797e-06
5.86883e-06
5.86968e-06
5.87054e-06
5.8714e-06
5.87226e-06
5.87311e-06
5.87395e-06
5.87477e-06
5.8756e-06
5.87643e-06
5.87725e-06
5.87811e-06
5.87882e-06
5.88021e-06
5.85587e-06
5.85661e-06
5.85735e-06
5.85809e-06
5.85883e-06
5.85956e-06
5.8603e-06
5.86103e-06
5.86176e-06
5.86249e-06
5.86323e-06
5.86396e-06
5.86469e-06
5.86542e-06
5.86616e-06
5.86689e-06
5.86762e-06
5.86836e-06
5.86909e-06
5.86981e-06
5.87053e-06
5.87125e-06
5.87196e-06
5.8727e-06
5.87332e-06
5.87451e-06
5.85328e-06
5.8539e-06
5.85452e-06
5.85514e-06
5.85576e-06
5.85638e-06
5.857e-06
5.85761e-06
5.85823e-06
5.85885e-06
5.85946e-06
5.86008e-06
5.86069e-06
5.86131e-06
5.86192e-06
5.86254e-06
5.86316e-06
5.86377e-06
5.86439e-06
5.86501e-06
5.86563e-06
5.86625e-06
5.86686e-06
5.86749e-06
5.86801e-06
5.86901e-06
5.85067e-06
5.85117e-06
5.85167e-06
5.85217e-06
5.85267e-06
5.85317e-06
5.85366e-06
5.85416e-06
5.85466e-06
5.85515e-06
5.85565e-06
5.85614e-06
5.85664e-06
5.85713e-06
5.85763e-06
5.85813e-06
5.85862e-06
5.85912e-06
5.85962e-06
5.86011e-06
5.86061e-06
5.86111e-06
5.8616e-06
5.86211e-06
5.86253e-06
5.86334e-06
5.84848e-06
5.84887e-06
5.84925e-06
5.84963e-06
5.85001e-06
5.85039e-06
5.85076e-06
5.85114e-06
5.85152e-06
5.8519e-06
5.85227e-06
5.85265e-06
5.85303e-06
5.85341e-06
5.85378e-06
5.85416e-06
5.85454e-06
5.85492e-06
5.85529e-06
5.85567e-06
5.85605e-06
5.85642e-06
5.85679e-06
5.85718e-06
5.8575e-06
5.85811e-06
5.84564e-06
5.84589e-06
5.84614e-06
5.84639e-06
5.84664e-06
5.84689e-06
5.84714e-06
5.84739e-06
5.84764e-06
5.84789e-06
5.84813e-06
5.84838e-06
5.84863e-06
5.84888e-06
5.84913e-06
5.84937e-06
5.84962e-06
5.84987e-06
5.85012e-06
5.85037e-06
5.85061e-06
5.85086e-06
5.85111e-06
5.85136e-06
5.85157e-06
5.85198e-06
5.84154e-06
5.84162e-06
5.84171e-06
5.84181e-06
5.8419e-06
5.842e-06
5.84209e-06
5.8422e-06
5.84231e-06
5.84243e-06
5.84256e-06
5.84268e-06
5.84281e-06
5.84293e-06
5.84305e-06
5.84317e-06
5.84328e-06
5.84339e-06
5.8435e-06
5.84361e-06
5.84371e-06
5.84382e-06
5.84392e-06
5.84402e-06
5.84413e-06
5.84417e-06
5.84076e-06
5.84227e-06
5.84379e-06
5.84531e-06
5.84683e-06
5.84835e-06
5.84987e-06
5.85137e-06
5.85291e-06
5.85431e-06
5.84079e-06
5.84236e-06
5.84395e-06
5.84553e-06
5.84711e-06
5.84869e-06
5.85027e-06
5.85183e-06
5.85345e-06
5.85491e-06
5.84079e-06
5.84237e-06
5.84396e-06
5.84555e-06
5.84714e-06
5.84873e-06
5.85032e-06
5.85191e-06
5.8535e-06
5.85508e-06
5.84077e-06
5.84232e-06
5.84387e-06
5.84541e-06
5.84697e-06
5.84852e-06
5.85007e-06
5.85163e-06
5.85318e-06
5.85474e-06
5.84074e-06
5.84221e-06
5.84368e-06
5.84516e-06
5.84664e-06
5.84812e-06
5.8496e-06
5.85109e-06
5.85257e-06
5.85408e-06
5.84069e-06
5.84207e-06
5.84344e-06
5.84483e-06
5.84621e-06
5.84759e-06
5.84898e-06
5.85037e-06
5.85175e-06
5.85317e-06
5.84063e-06
5.8419e-06
5.84317e-06
5.84443e-06
5.8457e-06
5.84698e-06
5.84825e-06
5.84953e-06
5.8508e-06
5.8521e-06
5.84057e-06
5.84172e-06
5.84286e-06
5.84401e-06
5.84516e-06
5.84631e-06
5.84746e-06
5.84862e-06
5.84977e-06
5.85094e-06
5.84051e-06
5.84153e-06
5.84255e-06
5.84357e-06
5.84459e-06
5.84561e-06
5.84664e-06
5.84767e-06
5.84869e-06
5.84974e-06
5.84045e-06
5.84134e-06
5.84223e-06
5.84312e-06
5.84401e-06
5.84491e-06
5.84581e-06
5.84671e-06
5.8476e-06
5.84852e-06
5.84038e-06
5.84115e-06
5.84191e-06
5.84268e-06
5.84344e-06
5.84421e-06
5.84498e-06
5.84575e-06
5.84652e-06
5.8473e-06
5.84032e-06
5.84096e-06
5.8416e-06
5.84223e-06
5.84287e-06
5.84351e-06
5.84416e-06
5.8448e-06
5.84544e-06
5.8461e-06
5.84026e-06
5.84077e-06
5.84128e-06
5.84179e-06
5.84231e-06
5.84282e-06
5.84334e-06
5.84386e-06
5.84437e-06
5.8449e-06
5.84019e-06
5.84058e-06
5.84096e-06
5.84135e-06
5.84174e-06
5.84212e-06
5.84251e-06
5.8429e-06
5.84329e-06
5.84369e-06
5.84012e-06
5.84037e-06
5.84062e-06
5.84087e-06
5.84112e-06
5.84137e-06
5.84162e-06
5.84187e-06
5.84212e-06
5.84238e-06
5.84004e-06
5.84013e-06
5.84022e-06
5.84031e-06
5.84039e-06
5.84045e-06
5.84051e-06
5.84054e-06
5.84057e-06
5.84059e-06
5.85524e-06
5.85561e-06
5.85596e-06
5.8563e-06
5.85664e-06
5.85696e-06
5.85729e-06
5.85762e-06
5.85794e-06
5.85826e-06
5.85859e-06
5.85893e-06
5.85929e-06
5.85968e-06
5.8601e-06
5.86055e-06
5.86106e-06
5.86164e-06
5.86236e-06
5.86342e-06
5.86406e-06
5.86448e-06
5.86483e-06
5.86515e-06
5.86546e-06
5.86577e-06
5.86608e-06
5.8664e-06
5.86673e-06
5.86707e-06
5.86741e-06
5.86781e-06
5.8681e-06
5.86861e-06
5.85588e-06
5.85633e-06
5.85679e-06
5.85725e-06
5.85771e-06
5.85817e-06
5.85863e-06
5.85908e-06
5.85953e-06
5.85996e-06
5.86039e-06
5.86081e-06
5.86122e-06
5.86162e-06
5.86201e-06
5.8624e-06
5.86279e-06
5.86317e-06
5.86356e-06
5.86396e-06
5.86436e-06
5.86476e-06
5.86516e-06
5.86556e-06
5.86595e-06
5.86635e-06
5.86674e-06
5.86713e-06
5.86752e-06
5.8679e-06
5.86826e-06
5.86865e-06
5.86912e-06
5.8699e-06
5.85615e-06
5.85662e-06
5.85708e-06
5.85754e-06
5.858e-06
5.85846e-06
5.85891e-06
5.85936e-06
5.85981e-06
5.86026e-06
5.86071e-06
5.86117e-06
5.86162e-06
5.86207e-06
5.86252e-06
5.86298e-06
5.86342e-06
5.86388e-06
5.86434e-06
5.86498e-06
5.86573e-06
5.86631e-06
5.86679e-06
5.86723e-06
5.86767e-06
5.8681e-06
5.86852e-06
5.86895e-06
5.86938e-06
5.86981e-06
5.87023e-06
5.87066e-06
5.87106e-06
5.87149e-06
5.85578e-06
5.85624e-06
5.85669e-06
5.85714e-06
5.85759e-06
5.85804e-06
5.85849e-06
5.85894e-06
5.85939e-06
5.85984e-06
5.86029e-06
5.86074e-06
5.86118e-06
5.86163e-06
5.86208e-06
5.86252e-06
5.86297e-06
5.86341e-06
5.86386e-06
5.86431e-06
5.86476e-06
5.86521e-06
5.86566e-06
5.86612e-06
5.86657e-06
5.86703e-06
5.86748e-06
5.86794e-06
5.86839e-06
5.86885e-06
5.86931e-06
5.86977e-06
5.87021e-06
5.8707e-06
5.85508e-06
5.85552e-06
5.85595e-06
5.85637e-06
5.8568e-06
5.85722e-06
5.85764e-06
5.85807e-06
5.85849e-06
5.85892e-06
5.85934e-06
5.85977e-06
5.8602e-06
5.86062e-06
5.86105e-06
5.86148e-06
5.86191e-06
5.86235e-06
5.86278e-06
5.86322e-06
5.86364e-06
5.86411e-06
5.86456e-06
5.865e-06
5.86544e-06
5.86588e-06
5.86633e-06
5.86677e-06
5.86722e-06
5.86766e-06
5.86811e-06
5.86857e-06
5.86901e-06
5.86948e-06
5.8541e-06
5.85451e-06
5.85491e-06
5.8553e-06
5.8557e-06
5.8561e-06
5.85649e-06
5.85689e-06
5.85729e-06
5.85769e-06
5.85809e-06
5.85849e-06
5.85889e-06
5.85929e-06
5.85969e-06
5.8601e-06
5.8605e-06
5.86091e-06
5.86131e-06
5.86172e-06
5.86213e-06
5.86253e-06
5.86294e-06
5.86336e-06
5.86377e-06
5.86418e-06
5.8646e-06
5.86501e-06
5.86543e-06
5.86585e-06
5.86627e-06
5.8667e-06
5.86712e-06
5.86756e-06
5.85296e-06
5.85333e-06
5.8537e-06
5.85406e-06
5.85443e-06
5.85479e-06
5.85515e-06
5.85552e-06
5.85588e-06
5.85625e-06
5.85661e-06
5.85698e-06
5.85735e-06
5.85772e-06
5.85809e-06
5.85846e-06
5.85883e-06
5.85921e-06
5.85958e-06
5.85996e-06
5.86034e-06
5.86072e-06
5.8611e-06
5.86148e-06
5.86187e-06
5.86226e-06
5.86264e-06
5.86304e-06
5.86343e-06
5.86382e-06
5.86422e-06
5.86462e-06
5.86502e-06
5.86543e-06
5.85172e-06
5.85205e-06
5.85238e-06
5.85271e-06
5.85304e-06
5.85337e-06
5.8537e-06
5.85403e-06
5.85436e-06
5.85469e-06
5.85502e-06
5.85535e-06
5.85568e-06
5.85602e-06
5.85635e-06
5.85669e-06
5.85703e-06
5.85737e-06
5.85771e-06
5.85805e-06
5.85839e-06
5.85873e-06
5.85908e-06
5.85943e-06
5.85977e-06
5.86012e-06
5.86048e-06
5.86083e-06
5.86119e-06
5.86154e-06
5.8619e-06
5.86226e-06
5.86262e-06
5.863e-06
5.85043e-06
5.85072e-06
5.85102e-06
5.85131e-06
5.8516e-06
5.85189e-06
5.85219e-06
5.85248e-06
5.85277e-06
5.85307e-06
5.85336e-06
5.85366e-06
5.85395e-06
5.85425e-06
5.85455e-06
5.85485e-06
5.85515e-06
5.85545e-06
5.85576e-06
5.85606e-06
5.85637e-06
5.85667e-06
5.85698e-06
5.85729e-06
5.8576e-06
5.85792e-06
5.85823e-06
5.85855e-06
5.85887e-06
5.85919e-06
5.85951e-06
5.85983e-06
5.86016e-06
5.86049e-06
5.84912e-06
5.84938e-06
5.84964e-06
5.84989e-06
5.85015e-06
5.8504e-06
5.85066e-06
5.85092e-06
5.85117e-06
5.85143e-06
5.85169e-06
5.85195e-06
5.85221e-06
5.85247e-06
5.85273e-06
5.85299e-06
5.85325e-06
5.85352e-06
5.85378e-06
5.85405e-06
5.85432e-06
5.85459e-06
5.85486e-06
5.85513e-06
5.8554e-06
5.85568e-06
5.85595e-06
5.85623e-06
5.85651e-06
5.85679e-06
5.85707e-06
5.85736e-06
5.85764e-06
5.85794e-06
5.84781e-06
5.84804e-06
5.84826e-06
5.84848e-06
5.8487e-06
5.84891e-06
5.84913e-06
5.84935e-06
5.84957e-06
5.8498e-06
5.85002e-06
5.85024e-06
5.85046e-06
5.85069e-06
5.85091e-06
5.85114e-06
5.85136e-06
5.85159e-06
5.85182e-06
5.85205e-06
5.85228e-06
5.85251e-06
5.85274e-06
5.85297e-06
5.85321e-06
5.85344e-06
5.85368e-06
5.85392e-06
5.85415e-06
5.85439e-06
5.85464e-06
5.85488e-06
5.85512e-06
5.85538e-06
5.84653e-06
5.84672e-06
5.8469e-06
5.84708e-06
5.84727e-06
5.84745e-06
5.84763e-06
5.84782e-06
5.848e-06
5.84819e-06
5.84837e-06
5.84856e-06
5.84874e-06
5.84893e-06
5.84912e-06
5.84931e-06
5.8495e-06
5.84969e-06
5.84988e-06
5.85007e-06
5.85026e-06
5.85045e-06
5.85065e-06
5.85084e-06
5.85104e-06
5.85124e-06
5.85144e-06
5.85164e-06
5.85184e-06
5.85204e-06
5.85224e-06
5.85245e-06
5.85265e-06
5.85286e-06
5.84524e-06
5.84539e-06
5.84553e-06
5.84568e-06
5.84583e-06
5.84598e-06
5.84612e-06
5.84627e-06
5.84642e-06
5.84657e-06
5.84672e-06
5.84687e-06
5.84702e-06
5.84717e-06
5.84732e-06
5.84747e-06
5.84762e-06
5.84778e-06
5.84793e-06
5.84808e-06
5.84824e-06
5.84839e-06
5.84855e-06
5.8487e-06
5.84886e-06
5.84902e-06
5.84918e-06
5.84934e-06
5.84952e-06
5.84968e-06
5.84985e-06
5.85001e-06
5.85017e-06
5.85034e-06
5.84395e-06
5.84406e-06
5.84418e-06
5.84429e-06
5.8444e-06
5.84451e-06
5.84462e-06
5.84473e-06
5.84485e-06
5.84496e-06
5.84507e-06
5.84519e-06
5.8453e-06
5.84542e-06
5.84553e-06
5.84565e-06
5.84577e-06
5.8459e-06
5.84603e-06
5.84616e-06
5.8463e-06
5.84645e-06
5.8466e-06
5.84676e-06
5.84693e-06
5.84709e-06
5.84726e-06
5.84742e-06
5.84757e-06
5.84772e-06
5.84786e-06
5.84798e-06
5.84811e-06
5.84823e-06
5.84254e-06
5.84261e-06
5.84269e-06
5.84276e-06
5.84283e-06
5.8429e-06
5.84297e-06
5.84305e-06
5.84312e-06
5.84319e-06
5.84327e-06
5.84334e-06
5.84341e-06
5.84349e-06
5.84356e-06
5.84364e-06
5.84372e-06
5.84381e-06
5.84389e-06
5.84398e-06
5.84408e-06
5.84417e-06
5.84428e-06
5.84438e-06
5.8445e-06
5.84462e-06
5.84475e-06
5.84487e-06
5.84499e-06
5.8451e-06
5.84521e-06
5.84531e-06
5.84539e-06
5.84548e-06
5.84062e-06
5.84064e-06
5.84067e-06
5.84069e-06
5.84071e-06
5.84073e-06
5.84074e-06
5.84075e-06
5.84076e-06
5.84077e-06
5.84077e-06
5.84077e-06
5.84078e-06
5.84079e-06
5.84081e-06
5.84083e-06
5.84085e-06
5.84088e-06
5.84091e-06
5.84094e-06
5.84098e-06
5.84102e-06
5.84107e-06
5.84111e-06
5.84116e-06
5.84122e-06
5.84127e-06
5.84132e-06
5.84137e-06
5.84142e-06
5.84146e-06
5.84149e-06
5.84153e-06
5.84155e-06
5.87074e-06
5.87327e-06
5.87529e-06
5.87703e-06
5.87857e-06
5.88027e-06
5.88206e-06
5.88389e-06
5.88574e-06
5.8876e-06
5.88947e-06
5.89133e-06
5.89321e-06
5.89509e-06
5.89696e-06
5.89883e-06
5.9007e-06
5.90257e-06
5.90444e-06
5.90632e-06
5.9082e-06
5.91009e-06
5.91196e-06
5.91391e-06
5.91551e-06
5.91859e-06
5.87129e-06
5.87294e-06
5.8746e-06
5.87622e-06
5.87761e-06
5.87886e-06
5.88022e-06
5.88163e-06
5.88307e-06
5.88451e-06
5.88594e-06
5.88743e-06
5.88867e-06
5.88997e-06
5.89134e-06
5.89277e-06
5.8942e-06
5.89564e-06
5.89708e-06
5.89852e-06
5.89996e-06
5.9014e-06
5.90283e-06
5.90431e-06
5.90554e-06
5.90787e-06
5.87255e-06
5.87376e-06
5.87553e-06
5.87721e-06
5.8786e-06
5.8798e-06
5.88096e-06
5.88225e-06
5.8836e-06
5.88496e-06
5.88634e-06
5.88773e-06
5.88911e-06
5.89043e-06
5.8918e-06
5.89318e-06
5.89457e-06
5.89596e-06
5.89735e-06
5.89875e-06
5.90014e-06
5.90153e-06
5.90292e-06
5.90436e-06
5.90555e-06
5.90784e-06
5.87175e-06
5.87331e-06
5.87477e-06
5.87634e-06
5.87798e-06
5.87949e-06
5.88089e-06
5.88226e-06
5.88364e-06
5.8851e-06
5.88659e-06
5.88809e-06
5.8896e-06
5.89111e-06
5.89263e-06
5.89414e-06
5.89566e-06
5.89718e-06
5.8987e-06
5.90022e-06
5.90174e-06
5.90327e-06
5.90478e-06
5.90636e-06
5.90765e-06
5.91011e-06
5.87043e-06
5.87184e-06
5.87315e-06
5.87461e-06
5.87612e-06
5.87759e-06
5.87894e-06
5.8802e-06
5.88144e-06
5.88276e-06
5.88411e-06
5.88547e-06
5.88683e-06
5.8882e-06
5.88957e-06
5.89094e-06
5.89231e-06
5.89368e-06
5.89505e-06
5.89643e-06
5.8978e-06
5.89918e-06
5.90055e-06
5.90197e-06
5.90314e-06
5.9054e-06
5.86847e-06
5.86982e-06
5.87116e-06
5.87246e-06
5.87382e-06
5.87519e-06
5.87655e-06
5.87786e-06
5.87911e-06
5.88033e-06
5.88157e-06
5.88282e-06
5.88412e-06
5.88543e-06
5.88676e-06
5.88809e-06
5.88942e-06
5.89076e-06
5.89209e-06
5.89343e-06
5.89477e-06
5.8961e-06
5.89741e-06
5.89877e-06
5.89988e-06
5.90204e-06
5.86625e-06
5.86746e-06
5.86866e-06
5.86985e-06
5.87105e-06
5.87223e-06
5.87342e-06
5.87463e-06
5.8758e-06
5.87693e-06
5.87806e-06
5.8792e-06
5.88037e-06
5.88156e-06
5.88276e-06
5.88395e-06
5.88515e-06
5.88635e-06
5.88755e-06
5.88875e-06
5.88995e-06
5.89115e-06
5.89234e-06
5.89359e-06
5.89461e-06
5.89657e-06
5.86375e-06
5.86486e-06
5.86597e-06
5.86708e-06
5.86818e-06
5.86927e-06
5.87037e-06
5.87147e-06
5.87257e-06
5.87367e-06
5.87476e-06
5.87582e-06
5.87686e-06
5.8779e-06
5.87895e-06
5.88001e-06
5.88108e-06
5.88216e-06
5.88323e-06
5.88431e-06
5.88539e-06
5.88646e-06
5.88753e-06
5.88864e-06
5.88956e-06
5.89134e-06
5.86115e-06
5.86214e-06
5.86312e-06
5.86409e-06
5.86506e-06
5.86603e-06
5.867e-06
5.86797e-06
5.86894e-06
5.86991e-06
5.87088e-06
5.87185e-06
5.8728e-06
5.87373e-06
5.87467e-06
5.87562e-06
5.87658e-06
5.87755e-06
5.87853e-06
5.8795e-06
5.88048e-06
5.88145e-06
5.88242e-06
5.88342e-06
5.88424e-06
5.88581e-06
5.85852e-06
5.85939e-06
5.86025e-06
5.86111e-06
5.86197e-06
5.86283e-06
5.86369e-06
5.86455e-06
5.8654e-06
5.86626e-06
5.86711e-06
5.86797e-06
5.86883e-06
5.86969e-06
5.87054e-06
5.8714e-06
5.87226e-06
5.87311e-06
5.87395e-06
5.87477e-06
5.8756e-06
5.87643e-06
5.87725e-06
5.87811e-06
5.87882e-06
5.88021e-06
5.85587e-06
5.85661e-06
5.85735e-06
5.85809e-06
5.85883e-06
5.85956e-06
5.8603e-06
5.86103e-06
5.86176e-06
5.86249e-06
5.86323e-06
5.86396e-06
5.86469e-06
5.86542e-06
5.86616e-06
5.86689e-06
5.86763e-06
5.86836e-06
5.86909e-06
5.86981e-06
5.87053e-06
5.87125e-06
5.87196e-06
5.8727e-06
5.87332e-06
5.87451e-06
5.85328e-06
5.8539e-06
5.85452e-06
5.85514e-06
5.85576e-06
5.85638e-06
5.857e-06
5.85761e-06
5.85823e-06
5.85885e-06
5.85946e-06
5.86008e-06
5.86069e-06
5.86131e-06
5.86193e-06
5.86254e-06
5.86316e-06
5.86378e-06
5.86439e-06
5.86501e-06
5.86563e-06
5.86625e-06
5.86686e-06
5.86749e-06
5.86801e-06
5.86901e-06
5.85067e-06
5.85118e-06
5.85168e-06
5.85217e-06
5.85267e-06
5.85317e-06
5.85367e-06
5.85416e-06
5.85466e-06
5.85515e-06
5.85565e-06
5.85614e-06
5.85664e-06
5.85713e-06
5.85763e-06
5.85813e-06
5.85862e-06
5.85912e-06
5.85962e-06
5.86011e-06
5.86061e-06
5.86111e-06
5.8616e-06
5.86211e-06
5.86254e-06
5.86334e-06
5.84848e-06
5.84887e-06
5.84925e-06
5.84963e-06
5.85001e-06
5.85039e-06
5.85076e-06
5.85114e-06
5.85152e-06
5.8519e-06
5.85227e-06
5.85265e-06
5.85303e-06
5.85341e-06
5.85378e-06
5.85416e-06
5.85454e-06
5.85492e-06
5.85529e-06
5.85567e-06
5.85605e-06
5.85642e-06
5.85679e-06
5.85718e-06
5.8575e-06
5.85811e-06
5.84564e-06
5.84589e-06
5.84614e-06
5.84639e-06
5.84664e-06
5.84689e-06
5.84714e-06
5.84739e-06
5.84764e-06
5.84789e-06
5.84813e-06
5.84838e-06
5.84863e-06
5.84888e-06
5.84913e-06
5.84937e-06
5.84962e-06
5.84987e-06
5.85012e-06
5.85037e-06
5.85061e-06
5.85086e-06
5.85111e-06
5.85136e-06
5.85157e-06
5.85198e-06
5.84154e-06
5.84162e-06
5.84171e-06
5.84181e-06
5.8419e-06
5.842e-06
5.84209e-06
5.8422e-06
5.84231e-06
5.84243e-06
5.84256e-06
5.84268e-06
5.84281e-06
5.84293e-06
5.84305e-06
5.84317e-06
5.84328e-06
5.84339e-06
5.8435e-06
5.84361e-06
5.84371e-06
5.84382e-06
5.84392e-06
5.84402e-06
5.84413e-06
5.84417e-06
5.84072e-06
5.84217e-06
5.84362e-06
5.84508e-06
5.84652e-06
5.84798e-06
5.8494e-06
5.85089e-06
5.85213e-06
5.854e-06
5.8407e-06
5.8421e-06
5.8435e-06
5.8449e-06
5.8463e-06
5.8477e-06
5.84908e-06
5.8505e-06
5.85174e-06
5.85354e-06
5.84067e-06
5.84202e-06
5.84336e-06
5.84471e-06
5.84606e-06
5.8474e-06
5.84873e-06
5.85007e-06
5.85132e-06
5.8529e-06
5.84064e-06
5.84193e-06
5.84321e-06
5.8445e-06
5.84578e-06
5.84706e-06
5.84834e-06
5.84959e-06
5.85087e-06
5.8522e-06
5.84061e-06
5.84183e-06
5.84305e-06
5.84427e-06
5.84549e-06
5.8467e-06
5.84792e-06
5.84906e-06
5.85036e-06
5.85144e-06
5.84057e-06
5.84172e-06
5.84287e-06
5.84402e-06
5.84516e-06
5.8463e-06
5.84746e-06
5.8485e-06
5.84982e-06
5.85061e-06
5.84053e-06
5.8416e-06
5.84267e-06
5.84374e-06
5.84481e-06
5.84587e-06
5.84696e-06
5.84789e-06
5.84923e-06
5.8497e-06
5.84049e-06
5.84148e-06
5.84247e-06
5.84345e-06
5.84444e-06
5.84541e-06
5.84643e-06
5.84725e-06
5.84856e-06
5.84889e-06
5.84045e-06
5.84134e-06
5.84224e-06
5.84314e-06
5.84404e-06
5.84492e-06
5.84585e-06
5.84659e-06
5.84777e-06
5.84832e-06
5.8404e-06
5.84121e-06
5.84201e-06
5.84282e-06
5.84362e-06
5.84441e-06
5.84525e-06
5.8459e-06
5.84695e-06
5.84766e-06
5.84035e-06
5.84106e-06
5.84177e-06
5.84247e-06
5.84318e-06
5.84387e-06
5.84461e-06
5.84517e-06
5.84609e-06
5.84692e-06
5.8403e-06
5.84091e-06
5.84151e-06
5.84212e-06
5.84273e-06
5.84331e-06
5.84395e-06
5.84442e-06
5.8452e-06
5.84609e-06
5.84025e-06
5.84075e-06
5.84125e-06
5.84175e-06
5.84225e-06
5.84274e-06
5.84327e-06
5.84365e-06
5.84429e-06
5.84516e-06
5.8402e-06
5.84059e-06
5.84098e-06
5.84137e-06
5.84177e-06
5.84214e-06
5.84256e-06
5.84286e-06
5.84336e-06
5.84414e-06
5.84014e-06
5.84042e-06
5.8407e-06
5.84099e-06
5.84127e-06
5.84154e-06
5.84184e-06
5.84205e-06
5.84241e-06
5.84303e-06
5.84008e-06
5.84025e-06
5.84042e-06
5.84059e-06
5.84076e-06
5.84093e-06
5.84111e-06
5.84123e-06
5.84144e-06
5.84185e-06
5.84003e-06
5.84009e-06
5.84014e-06
5.8402e-06
5.84026e-06
5.84031e-06
5.84037e-06
5.84042e-06
5.84049e-06
5.84063e-06
5.84003e-06
5.84009e-06
5.84014e-06
5.8402e-06
5.84026e-06
5.84031e-06
5.84037e-06
5.84042e-06
5.84049e-06
5.84063e-06
5.84008e-06
5.84025e-06
5.84042e-06
5.84059e-06
5.84076e-06
5.84093e-06
5.84111e-06
5.84123e-06
5.84144e-06
5.84185e-06
5.84014e-06
5.84042e-06
5.8407e-06
5.84099e-06
5.84127e-06
5.84154e-06
5.84184e-06
5.84205e-06
5.84241e-06
5.84303e-06
5.8402e-06
5.84059e-06
5.84098e-06
5.84137e-06