/*--------------------------------*- C++ -*----------------------------------*\
| =========                 |                                                 |
| \\      /  F ield         | OpenFOAM: The Open Source CFD Toolbox           |
|  \\    /   O peration     | Version:  2412                                  |
|   \\  /    A nd           | Website:  www.openfoam.com                      |
|    \\/     M anipulation  |                                                 |
\*---------------------------------------------------------------------------*/
FoamFile
{
    version     2.0;
    format      ascii;
    arch        "LSB;label=32;scalar=64";
    class       volScalarField;
    location    "1500";
    object      p;
}
// * * * * * * * * * * * * * * * * * * * * * * * * * * * * * * * * * * * * * //

dimensions      [0 2 -2 0 0 0 0];

internalField   nonuniform List<scalar> 
6320
(
0.590514
0.592777
0.598496
0.606806
0.616223
0.624929
0.62983
0.626048
0.605013
0.557694
0.54409
0.544778
0.546493
0.548432
0.549077
0.54633
0.536888
0.516177
0.47567
0.406761
0.49679
0.496224
0.494725
0.491586
0.485466
0.474317
0.45511
0.423932
0.37474
0.303118
0.450069
0.448593
0.444574
0.437537
0.426447
0.409493
0.384115
0.347276
0.294519
0.222549
0.405099
0.402954
0.397101
0.387292
0.372836
0.35224
0.323461
0.284271
0.231731
0.164356
0.362708
0.360106
0.353015
0.341382
0.32484
0.30224
0.272021
0.232647
0.182209
0.119967
0.323465
0.32058
0.312725
0.300011
0.282361
0.258937
0.228603
0.19036
0.143102
0.0867764
0.287723
0.284688
0.276427
0.263185
0.245123
0.221679
0.192056
0.155666
0.111934
0.0611054
0.255675
0.252582
0.244166
0.230778
0.212767
0.189798
0.161345
0.127117
0.0869266
0.0412633
0.227401
0.224307
0.215894
0.202594
0.184906
0.162678
0.135587
0.103559
0.0666436
0.0253887
0.202905
0.19984
0.191506
0.178406
0.161161
0.139761
0.114042
0.0840778
0.050113
0.0128198
0.182158
0.179124
0.170877
0.157994
0.141198
0.120578
0.0960767
0.0678761
0.0362942
0.00188867
0.165127
0.162099
0.153863
0.141125
0.124724
0.104814
0.0814052
0.054741
0.0252908
-0.00615149
0.151811
0.148742
0.140378
0.127577
0.111269
0.0916739
0.0688598
0.0431174
0.0148243
-0.0156081
0.142296
0.138926
0.130417
0.117761
0.101756
0.0826213
0.0604796
0.0356316
0.0086628
-0.0194846
0.137058
0.132236
0.122432
0.108936
0.0923515
0.0728294
0.0504934
0.0256197
-0.00156064
-0.0308197
0.503396
0.456515
0.403985
0.349445
0.288501
0.218647
0.140149
0.0537638
-0.0400068
-0.140535
-0.246779
-0.3573
-0.470364
-0.584018
-0.69616
-0.804644
-0.907394
-1.00252
-1.08842
-1.16385
-1.22776
-1.27856
-1.31638
-1.34172
-1.35492
-1.35641
-1.34692
-1.32744
-1.29908
-1.26305
-1.22057
-1.17291
-1.12132
-1.06754
0.323575
0.271046
0.220025
0.169862
0.115407
0.0553972
-0.00900698
-0.0769395
-0.148159
-0.222383
-0.298945
-0.376958
-0.455469
-0.533479
-0.609941
-0.683776
-0.753922
-0.819319
-0.879023
-0.932071
-0.978296
-1.01887
-1.05196
-1.077
-1.0943
-1.10415
-1.10674
-1.10231
-1.09122
-1.07388
-1.0507
-1.02207
-0.988286
-0.949684
0.234767
0.194666
0.154739
0.114572
0.0713061
0.0243869
-0.0254292
-0.0776311
-0.132012
-0.188258
-0.245873
-0.30428
-0.362866
-0.420986
-0.477956
-0.533081
-0.585682
-0.635121
-0.680825
-0.722311
-0.759184
-0.791106
-0.817732
-0.838862
-0.854499
-0.864756
-0.869791
-0.869827
-0.865171
-0.856201
-0.843348
-0.82709
-0.807794
-0.785232
0.156233
0.119538
0.0834903
0.047586
0.00973669
-0.0303497
-0.072032
-0.114861
-0.158634
-0.203135
-0.248059
-0.293047
-0.337715
-0.38167
-0.424508
-0.465832
-0.505252
-0.542408
-0.576916
-0.608327
-0.635965
-0.660042
-0.681396
-0.699341
-0.713434
-0.723718
-0.730337
-0.733378
-0.732929
-0.729113
-0.722092
-0.712018
-0.6991
-0.683276
0.10765
0.0776458
0.0482592
0.0190756
-0.0113533
-0.0432059
-0.0760297
-0.109528
-0.143589
-0.178082
-0.212791
-0.247456
-0.281814
-0.315603
-0.348556
-0.380402
-0.410874
-0.439717
-0.466697
-0.491607
-0.51429
-0.534634
-0.552516
-0.567792
-0.580376
-0.590265
-0.597497
-0.602124
-0.604225
-0.60391
-0.601324
-0.596614
-0.590003
-0.581434
0.0692815
0.0432758
0.0178505
-0.00740171
-0.0335259
-0.0605964
-0.0882481
-0.116246
-0.144488
-0.172859
-0.20119
-0.229299
-0.257013
-0.284154
-0.310544
-0.336002
-0.360355
-0.383439
-0.405102
-0.425205
-0.443614
-0.460257
-0.474917
-0.487716
-0.498615
-0.507534
-0.514454
-0.519398
-0.522405
-0.523521
-0.522804
-0.520312
-0.516152
-0.51024
0.0430522
0.0212279
-9.82598e-05
-0.0212437
-0.0429308
-0.065192
-0.0877642
-0.110485
-0.133289
-0.1561
-0.178809
-0.201294
-0.223431
-0.245098
-0.266173
-0.286533
-0.30606
-0.324643
-0.342175
-0.358562
-0.373717
-0.38757
-0.400061
-0.41115
-0.420798
-0.42898
-0.435688
-0.440935
-0.444748
-0.447161
-0.448228
-0.448002
-0.446586
-0.443892
0.0226379
0.00379949
-0.0146227
-0.032905
-0.0515695
-0.0706198
-0.0898533
-0.109146
-0.128444
-0.147683
-0.166776
-0.185626
-0.204143
-0.222239
-0.239825
-0.256812
-0.273116
-0.288657
-0.303358
-0.317151
-0.329974
-0.341772
-0.352501
-0.362124
-0.370615
-0.377956
-0.38414
-0.389163
-0.393034
-0.395766
-0.397384
-0.397905
-0.397382
-0.395735
0.00777508
-0.00835312
-0.0241471
-0.039815
-0.05572
-0.071852
-0.0880604
-0.104255
-0.120396
-0.136437
-0.152314
-0.167963
-0.183317
-0.198313
-0.212888
-0.226979
-0.240526
-0.253473
-0.265765
-0.277354
-0.288195
-0.298249
-0.307484
-0.315874
-0.323397
-0.330041
-0.335798
-0.340667
-0.344656
-0.347777
-0.350054
-0.351505
-0.352183
-0.352016
-0.00441722
-0.0185864
-0.0324617
-0.0462297
-0.0601603
-0.0742351
-0.0883363
-0.102394
-0.116376
-0.130245
-0.143948
-0.157435
-0.170654
-0.183557
-0.196095
-0.208223
-0.219894
-0.231064
-0.241693
-0.251744
-0.261182
-0.269977
-0.278102
-0.285537
-0.292263
-0.298266
-0.303539
-0.308076
-0.311877
-0.314946
-0.317291
-0.318913
-0.31984
-0.320013
-0.0132827
-0.0256066
-0.037743
-0.0497935
-0.0619366
-0.074156
-0.0863654
-0.0985118
-0.110569
-0.122506
-0.134285
-0.145868
-0.157214
-0.168288
-0.179053
-0.189473
-0.199514
-0.209143
-0.218331
-0.22705
-0.235275
-0.242983
-0.250154
-0.256772
-0.262825
-0.268302
-0.273198
-0.277508
-0.281234
-0.284378
-0.286947
-0.288953
-0.290426
-0.291315
-0.0223976
-0.0336356
-0.0445956
-0.0554596
-0.0663838
-0.0773386
-0.088248
-0.0990709
-0.109787
-0.120373
-0.130797
-0.141027
-0.151035
-0.160794
-0.170274
-0.17945
-0.188294
-0.196781
-0.204888
-0.212593
-0.219876
-0.22672
-0.233107
-0.239024
-0.244458
-0.249399
-0.253839
-0.257774
-0.261227
-0.264188
-0.266614
-0.268519
-0.269935
-0.270827
-0.0269786
-0.0368509
-0.0467305
-0.0565406
-0.0663455
-0.076147
-0.0859023
-0.0955772
-0.10515
-0.1146
-0.123901
-0.133029
-0.141958
-0.150664
-0.159127
-0.167324
-0.175236
-0.182841
-0.190123
-0.197065
-0.203653
-0.209873
-0.215716
-0.221175
-0.226247
-0.230915
-0.235159
-0.238969
-0.24235
-0.24529
-0.247804
-0.249871
-0.25153
-0.252765
-0.0372098
-0.0466878
-0.0557145
-0.0646557
-0.073634
-0.0825859
-0.0914456
-0.100192
-0.108816
-0.117305
-0.125637
-0.133794
-0.141759
-0.149514
-0.157043
-0.164327
-0.171351
-0.178099
-0.184558
-0.190714
-0.196555
-0.202071
-0.207255
-0.212099
-0.2166
-0.220757
-0.224557
-0.227986
-0.231016
-0.233652
-0.235941
-0.237866
-0.239408
-0.24054
-0.0368
-0.0455351
-0.0544823
-0.063201
-0.0717478
-0.0802211
-0.088618
-0.096905
-0.105063
-0.113082
-0.12095
-0.128652
-0.136172
-0.143496
-0.15061
-0.157498
-0.164147
-0.170545
-0.176678
-0.182534
-0.188101
-0.193367
-0.19832
-0.202948
-0.207238
-0.211191
-0.214817
-0.218117
-0.221081
-0.223724
-0.226038
-0.228043
-0.22971
-0.230999
-0.0516691
-0.0599561
-0.0675033
-0.0750872
-0.0827875
-0.090428
-0.0979311
-0.105307
-0.112566
-0.119697
-0.126683
-0.133509
-0.140162
-0.14663
-0.152902
-0.158965
-0.164808
-0.170422
-0.175797
-0.180923
-0.185792
-0.190397
-0.194731
-0.198788
-0.202562
-0.206052
-0.209262
-0.21221
-0.214857
-0.21717
-0.219211
-0.221048
-0.222694
-0.224137
-0.944535
-0.752113
-0.573307
-0.425488
-0.3125
-0.227129
-0.163087
-0.116251
-0.0825007
-0.0581993
-0.0406911
-0.0281548
-0.0193489
-0.0131185
-0.00856195
-0.00535127
-0.00317766
-0.0016872
-0.000657449
2.59629e-05
0.000440867
0.000644329
0.000689813
0.000573538
0.000365086
2.81428e-05
-0.85545
-0.700202
-0.55288
-0.431954
-0.335348
-0.258551
-0.196926
-0.148887
-0.112871
-0.0859089
-0.0655752
-0.0499776
-0.0385267
-0.0300258
-0.0229998
-0.0175538
-0.0135301
-0.010467
-0.00802498
-0.00605487
-0.00446796
-0.00318634
-0.00213401
-0.00128731
-0.000568526
-0.0001636
-0.730475
-0.623809
-0.517337
-0.421754
-0.341342
-0.275784
-0.221289
-0.175785
-0.139269
-0.110769
-0.0887071
-0.0712825
-0.0574619
-0.0465461
-0.0376829
-0.0304542
-0.024721
-0.0200878
-0.0162257
-0.0129621
-0.0101854
-0.00779935
-0.00570258
-0.00386539
-0.00214145
-0.000847327
-0.643779
-0.571794
-0.493382
-0.414032
-0.344762
-0.287082
-0.238302
-0.196171
-0.160369
-0.131151
-0.107844
-0.0889815
-0.0735643
-0.0609928
-0.0506263
-0.0419887
-0.0348175
-0.0288208
-0.0237203
-0.0193205
-0.0154805
-0.012091
-0.00901204
-0.0062391
-0.00347643
-0.00149121
-0.558936
-0.508802
-0.44869
-0.38779
-0.331496
-0.282025
-0.239253
-0.20216
-0.170068
-0.142713
-0.119573
-0.100312
-0.0843028
-0.0710261
-0.0598433
-0.0503125
-0.0421813
-0.0352204
-0.0291919
-0.0239028
-0.0192062
-0.0150135
-0.0111308
-0.00756443
-0.00395091
-0.0015276
-0.494088
-0.459751
-0.415918
-0.369546
-0.32396
-0.281678
-0.24373
-0.210418
-0.18125
-0.155572
-0.132921
-0.113449
-0.0969152
-0.0828569
-0.0707755
-0.0603263
-0.0512569
-0.0433423
-0.0363675
-0.0301506
-0.0245427
-0.0194403
-0.014699
-0.0103471
-0.0059013
-0.00259941
-0.435443
-0.411989
-0.379458
-0.343003
-0.306427
-0.271208
-0.238493
-0.208764
-0.182108
-0.158417
-0.137474
-0.119071
-0.102883
-0.0885755
-0.0760661
-0.0651737
-0.0556261
-0.0471851
-0.0396461
-0.0328448
-0.0266331
-0.0208949
-0.0155354
-0.0106039
-0.00566759
-0.00220628
-0.389944
-0.374194
-0.35044
-0.322306
-0.293031
-0.264041
-0.236214
-0.21007
-0.18592
-0.164075
-0.144469
-0.126866
-0.111052
-0.0967667
-0.0840278
-0.072744
-0.062704
-0.0537053
-0.0455513
-0.0381016
-0.031249
-0.02492
-0.0189594
-0.0134112
-0.00765259
-0.00333902
-0.349885
-0.33954
-0.322013
-0.300145
-0.276527
-0.252442
-0.228615
-0.205647
-0.183998
-0.163925
-0.145452
-0.128539
-0.113257
-0.0994559
-0.0869713
-0.0756756
-0.0654527
-0.0561772
-0.047671
-0.0397992
-0.0324943
-0.0257063
-0.0192905
-0.0133115
-0.00723237
-0.00288943
-0.318842
-0.312308
-0.299562
-0.282569
-0.263487
-0.243455
-0.223111
-0.203028
-0.183674
-0.165343
-0.148182
-0.132235
-0.117538
-0.104114
-0.0918115
-0.0804971
-0.0700914
-0.0605089
-0.051694
-0.0435145
-0.0358529
-0.028646
-0.0217711
-0.0153395
-0.00868474
-0.00375356
-0.291976
-0.288103
-0.27869
-0.265317
-0.249728
-0.23289
-0.215368
-0.197681
-0.180293
-0.163529
-0.147584
-0.132557
-0.118509
-0.105458
-0.093344
-0.0820939
-0.0716444
-0.0619255
-0.0529228
-0.0445648
-0.0367227
-0.0293127
-0.0221932
-0.015483
-0.00856549
-0.0035335
-0.271627
-0.269546
-0.262627
-0.251958
-0.239027
-0.224677
-0.2094
-0.193666
-0.177921
-0.1625
-0.147617
-0.133406
-0.119949
-0.107288
-0.0954204
-0.0843118
-0.0739178
-0.0641922
-0.0550722
-0.0465311
-0.0384844
-0.0308538
-0.0234879
-0.0165238
-0.00928466
-0.00393729
-0.254471
-0.253614
-0.248368
-0.239666
-0.228764
-0.216382
-0.202939
-0.188856
-0.174546
-0.160338
-0.14645
-0.133031
-0.120181
-0.10796
-0.0963929
-0.0854703
-0.0751689
-0.0654569
-0.0562964
-0.0476486
-0.0394383
-0.0316008
-0.0240199
-0.0168516
-0.00941625
-0.00394357
-0.242119
-0.241936
-0.237734
-0.230237
-0.220599
-0.209468
-0.197219
-0.184239
-0.170927
-0.157595
-0.144453
-0.131649
-0.119293
-0.107459
-0.0961835
-0.0854759
-0.0753257
-0.0657127
-0.056603
-0.0479561
-0.0397135
-0.0318323
-0.024198
-0.0169655
-0.009458
-0.00394489
-0.232841
-0.233137
-0.229711
-0.223244
-0.21472
-0.204681
-0.193452
-0.181401
-0.168938
-0.156359
-0.143855
-0.131569
-0.119615
-0.108077
-0.0970067
-0.0864266
-0.0763401
-0.0667357
-0.0575874
-0.0488658
-0.0405283
-0.0325459
-0.024798
-0.0174441
-0.00978889
-0.00413123
-0.226489
-0.22619
-0.222368
-0.215937
-0.207693
-0.198064
-0.187331
-0.17584
-0.163976
-0.152005
-0.140089
-0.128351
-0.116895
-0.105801
-0.0951192
-0.0848736
-0.0750709
-0.0657012
-0.0567452
-0.0481795
-0.0399628
-0.0320695
-0.0243857
-0.0170773
-0.00949297
-0.00394159
0.590511
0.592774
0.598493
0.606802
0.616219
0.624924
0.629825
0.626041
0.605004
0.557683
0.544087
0.544774
0.546489
0.548428
0.549072
0.546325
0.536882
0.51617
0.475661
0.406751
0.496786
0.49622
0.494721
0.491582
0.485462
0.474312
0.455104
0.423926
0.374733
0.303109
0.450065
0.448589
0.44457
0.437533
0.426442
0.409489
0.384109
0.34727
0.294512
0.222541
0.405095
0.40295
0.397098
0.387289
0.372832
0.352236
0.323456
0.284265
0.231726
0.164349
0.362705
0.360103
0.353012
0.341378
0.324837
0.302236
0.272017
0.232642
0.182204
0.119962
0.323462
0.320577
0.312722
0.300008
0.282357
0.258934
0.228599
0.190356
0.143098
0.0867723
0.28772
0.284685
0.276424
0.263183
0.24512
0.221676
0.192053
0.155663
0.111931
0.0611025
0.255673
0.25258
0.244164
0.230776
0.212765
0.189796
0.161342
0.127114
0.0869244
0.0412613
0.227398
0.224305
0.215892
0.202592
0.184904
0.162676
0.135586
0.103557
0.0666421
0.0253875
0.202903
0.199838
0.191504
0.178404
0.161159
0.13976
0.114041
0.0840766
0.0501122
0.0128193
0.182157
0.179122
0.170875
0.157992
0.141196
0.120576
0.0960757
0.0678754
0.0362939
0.00188887
0.165125
0.162097
0.153861
0.141124
0.124723
0.104813
0.0814046
0.0547408
0.025291
-0.00615076
0.15181
0.148741
0.140377
0.127576
0.111268
0.0916732
0.0688596
0.0431175
0.0148249
-0.015607
0.142295
0.138924
0.130415
0.11776
0.101755
0.0826209
0.0604796
0.035632
0.0086637
-0.0194831
0.137057
0.132235
0.122431
0.108935
0.0923509
0.0728292
0.0504936
0.0256203
-0.00155943
-0.0308178
0.503383
0.4565
0.403968
0.349426
0.288481
0.218625
0.140126
0.0537394
-0.0400327
-0.140562
-0.246808
-0.357332
-0.470397
-0.584052
-0.696196
-0.804681
-0.907432
-1.00256
-1.08845
-1.16389
-1.2278
-1.2786
-1.31641
-1.34176
-1.35495
-1.35643
-1.34694
-1.32745
-1.29909
-1.26305
-1.22056
-1.17291
-1.1213
-1.06752
0.323562
0.271032
0.22001
0.169846
0.115389
0.0553778
-0.00902726
-0.0769607
-0.148181
-0.222406
-0.298969
-0.376983
-0.455495
-0.533506
-0.609969
-0.683805
-0.753951
-0.819347
-0.879051
-0.932099
-0.978323
-1.0189
-1.05199
-1.07702
-1.09432
-1.10417
-1.10675
-1.10232
-1.09123
-1.07389
-1.0507
-1.02207
-0.988277
-0.94967
0.234756
0.194655
0.154727
0.114558
0.0712914
0.0243712
-0.0254456
-0.0776479
-0.132029
-0.188276
-0.245892
-0.304299
-0.362886
-0.421006
-0.477976
-0.533102
-0.585703
-0.635141
-0.680845
-0.72233
-0.759202
-0.791123
-0.817747
-0.838875
-0.854511
-0.864765
-0.869798
-0.869832
-0.865173
-0.8562
-0.843344
-0.827083
-0.807784
-0.785219
0.156225
0.119529
0.08348
0.0475747
0.00972451
-0.0303625
-0.0720453
-0.114875
-0.158648
-0.203149
-0.248073
-0.293062
-0.33773
-0.381685
-0.424524
-0.465847
-0.505267
-0.542423
-0.57693
-0.60834
-0.635977
-0.660053
-0.681406
-0.69935
-0.713441
-0.723723
-0.73034
-0.73338
-0.732929
-0.72911
-0.722087
-0.712011
-0.699091
-0.683264
0.107643
0.0776383
0.048251
0.0190668
-0.0113627
-0.0432158
-0.0760398
-0.109539
-0.143599
-0.178092
-0.212802
-0.247467
-0.281825
-0.315614
-0.348567
-0.380412
-0.410883
-0.439727
-0.466705
-0.491615
-0.514297
-0.53464
-0.552522
-0.567796
-0.580379
-0.590267
-0.597497
-0.602123
-0.604222
-0.603905
-0.601318
-0.596606
-0.589993
-0.581422
0.0692759
0.0432699
0.0178442
-0.00740849
-0.0335332
-0.060604
-0.0882559
-0.116254
-0.144496
-0.172867
-0.201197
-0.229307
-0.25702
-0.284162
-0.310551
-0.336009
-0.360361
-0.383446
-0.405107
-0.42521
-0.443618
-0.46026
-0.47492
-0.487718
-0.498616
-0.507534
-0.514452
-0.519394
-0.522401
-0.523515
-0.522797
-0.520303
-0.516142
-0.510228
0.0430481
0.0212236
-0.000102823
-0.0212486
-0.0429361
-0.0651975
-0.0877697
-0.110491
-0.133294
-0.156105
-0.178814
-0.201299
-0.223436
-0.245103
-0.266177
-0.286537
-0.306064
-0.324646
-0.342178
-0.358564
-0.373718
-0.38757
-0.400061
-0.411149
-0.420797
-0.428977
-0.435684
-0.440931
-0.444742
-0.447154
-0.44822
-0.447993
-0.446575
-0.443881
0.0226349
0.00379653
-0.0146258
-0.0329084
-0.0515732
-0.0706236
-0.0898571
-0.10915
-0.128448
-0.147687
-0.166779
-0.185629
-0.204146
-0.222242
-0.239827
-0.256814
-0.273118
-0.288658
-0.303359
-0.317151
-0.329973
-0.341772
-0.3525
-0.362122
-0.370612
-0.377953
-0.384135
-0.389157
-0.393027
-0.395759
-0.397376
-0.397896
-0.397372
-0.395724
0.00777324
-0.00835492
-0.024149
-0.0398171
-0.0557222
-0.0718543
-0.0880627
-0.104257
-0.120398
-0.136438
-0.152316
-0.167964
-0.183318
-0.198314
-0.212889
-0.22698
-0.240526
-0.253472
-0.265764
-0.277352
-0.288193
-0.298247
-0.307481
-0.31587
-0.323393
-0.330036
-0.335792
-0.340661
-0.344649
-0.34777
-0.350046
-0.351495
-0.352173
-0.352005
-0.00441813
-0.0185872
-0.0324625
-0.0462307
-0.0601614
-0.0742362
-0.0883373
-0.102395
-0.116377
-0.130245
-0.143949
-0.157435
-0.170654
-0.183556
-0.196095
-0.208222
-0.219892
-0.231062
-0.241691
-0.251741
-0.261179
-0.269973
-0.278098
-0.285532
-0.292258
-0.298261
-0.303533
-0.308069
-0.31187
-0.314938
-0.317282
-0.318904
-0.31983
-0.320002
-0.0132828
-0.0256066
-0.037743
-0.0497935
-0.0619367
-0.0741561
-0.0863653
-0.0985116
-0.110568
-0.122505
-0.134285
-0.145866
-0.157213
-0.168287
-0.179051
-0.189471
-0.199511
-0.20914
-0.218328
-0.227047
-0.235271
-0.242978
-0.250149
-0.256767
-0.262819
-0.268296
-0.273191
-0.277501
-0.281226
-0.284369
-0.286939
-0.288944
-0.290416
-0.291305
-0.022397
-0.0336349
-0.0445948
-0.0554589
-0.0663831
-0.0773378
-0.0882471
-0.0990698
-0.109786
-0.120371
-0.130795
-0.141025
-0.151033
-0.160791
-0.170272
-0.179447
-0.188291
-0.196777
-0.204884
-0.212589
-0.219872
-0.226715
-0.233102
-0.239018
-0.244452
-0.249393
-0.253832
-0.257767
-0.261219
-0.26418
-0.266605
-0.26851
-0.269926
-0.270817
-0.0269775
-0.0368496
-0.0467292
-0.0565393
-0.0663441
-0.0761455
-0.0859008
-0.0955754
-0.105148
-0.114597
-0.123899
-0.133026
-0.141955
-0.150661
-0.159124
-0.167321
-0.175232
-0.182837
-0.190119
-0.197061
-0.203648
-0.209868
-0.215711
-0.221169
-0.22624
-0.230908
-0.235152
-0.238961
-0.242342
-0.245282
-0.247795
-0.249861
-0.25152
-0.252755
-0.0372082
-0.046686
-0.0557126
-0.0646538
-0.073632
-0.0825838
-0.0914434
-0.100189
-0.108814
-0.117302
-0.125634
-0.133791
-0.141755
-0.149511
-0.157039
-0.164323
-0.171346
-0.178095
-0.184553
-0.190708
-0.196549
-0.202065
-0.207248
-0.212092
-0.216594
-0.22075
-0.22455
-0.227979
-0.231008
-0.233644
-0.235933
-0.237857
-0.239399
-0.24053
-0.0367981
-0.0455331
-0.0544802
-0.0631988
-0.0717455
-0.0802187
-0.0886155
-0.0969023
-0.10506
-0.113079
-0.120947
-0.128648
-0.136168
-0.143493
-0.150606
-0.157494
-0.164143
-0.17054
-0.176673
-0.182529
-0.188095
-0.193361
-0.198313
-0.202941
-0.207231
-0.211184
-0.21481
-0.218109
-0.221073
-0.223715
-0.226029
-0.228034
-0.2297
-0.23099
-0.0516667
-0.0599535
-0.0675006
-0.0750844
-0.0827846
-0.090425
-0.097928
-0.105304
-0.112563
-0.119694
-0.126679
-0.133505
-0.140157
-0.146626
-0.152897
-0.15896
-0.164803
-0.170417
-0.175791
-0.180917
-0.185786
-0.190391
-0.194724
-0.198781
-0.202555
-0.206045
-0.209254
-0.212202
-0.214849
-0.217161
-0.219202
-0.221038
-0.222685
-0.224127
-0.944505
-0.752074
-0.573265
-0.425446
-0.312457
-0.227086
-0.163044
-0.116211
-0.0824644
-0.0581682
-0.0406661
-0.0281359
-0.0193346
-0.0131071
-0.00855212
-0.00534245
-0.00316977
-0.00168053
-0.000652514
2.88396e-05
0.000441866
0.000643956
0.000688575
0.000572058
0.000363951
2.76974e-05
-0.855428
-0.700172
-0.552846
-0.431919
-0.335314
-0.258516
-0.19689
-0.148853
-0.112839
-0.0858807
-0.0655514
-0.0499588
-0.0385119
-0.0300136
-0.0229895
-0.0175449
-0.0135224
-0.0104605
-0.00801987
-0.00605134
-0.00446597
-0.00318563
-0.00213419
-0.00128793
-0.00056903
-0.000164031
-0.730456
-0.623783
-0.517308
-0.421724
-0.341312
-0.275754
-0.221259
-0.175755
-0.13924
-0.110743
-0.0886845
-0.0712636
-0.0574466
-0.0465333
-0.037672
-0.0304449
-0.024713
-0.020081
-0.0162201
-0.0129578
-0.0101824
-0.00779748
-0.00570158
-0.00386496
-0.00214121
-0.000847417
-0.643762
-0.571772
-0.493358
-0.414007
-0.344737
-0.287056
-0.238276
-0.196145
-0.160344
-0.131128
-0.107823
-0.0889638
-0.0735495
-0.0609803
-0.0506156
-0.0419795
-0.0348095
-0.028814
-0.0237146
-0.019316
-0.0154771
-0.0120887
-0.00901054
-0.0062382
-0.00347585
-0.00149117
-0.55892
-0.508783
-0.448669
-0.387768
-0.331474
-0.282003
-0.239231
-0.202137
-0.170046
-0.142692
-0.119554
-0.100295
-0.0842884
-0.0710137
-0.0598325
-0.050303
-0.042173
-0.0352131
-0.0291858
-0.0238978
-0.0192024
-0.0150108
-0.0111289
-0.00756311
-0.00394996
-0.00152734
-0.494074
-0.459733
-0.4159
-0.369527
-0.323941
-0.281658
-0.24371
-0.210398
-0.18123
-0.155553
-0.132903
-0.113434
-0.0969016
-0.082845
-0.070765
-0.060317
-0.0512485
-0.0433349
-0.0363611
-0.0301454
-0.0245386
-0.0194374
-0.0146969
-0.0103458
-0.0059005
-0.00259923
-0.435429
-0.411973
-0.379441
-0.342986
-0.30641
-0.27119
-0.238475
-0.208745
-0.18209
-0.158399
-0.137457
-0.119056
-0.10287
-0.088564
-0.076056
-0.0651646
-0.0556179
-0.0471776
-0.0396396
-0.0328393
-0.0266287
-0.0208915
-0.0155331
-0.0106025
-0.00566674
-0.00220608
-0.389931
-0.37418
-0.350425
-0.322291
-0.293016
-0.264025
-0.236197
-0.210053
-0.185903
-0.164059
-0.144454
-0.126852
-0.111039
-0.0967559
-0.0840181
-0.0727352
-0.0626959
-0.053698
-0.0455448
-0.038096
-0.0312446
-0.0249167
-0.018957
-0.0134096
-0.0076516
-0.00333874
-0.349873
-0.339526
-0.321999
-0.300131
-0.276513
-0.252428
-0.2286
-0.205632
-0.183982
-0.16391
-0.145437
-0.128525
-0.113245
-0.0994454
-0.0869618
-0.075667
-0.0654448
-0.05617
-0.0476647
-0.0397938
-0.0324899
-0.0257029
-0.019288
-0.0133098
-0.00723132
-0.00288912
-0.31883
-0.312295
-0.299549
-0.282556
-0.263474
-0.243441
-0.223098
-0.203014
-0.183659
-0.165329
-0.148168
-0.132222
-0.117527
-0.104104
-0.0918023
-0.0804887
-0.0700838
-0.0605021
-0.051688
-0.0435093
-0.0358485
-0.0286425
-0.0217684
-0.0153376
-0.00868365
-0.00375324
-0.291964
-0.288091
-0.278678
-0.265305
-0.249715
-0.232877
-0.215355
-0.197668
-0.180279
-0.163516
-0.147571
-0.132545
-0.118498
-0.105448
-0.0933351
-0.0820858
-0.071637
-0.0619188
-0.0529168
-0.0445596
-0.0367183
-0.0293091
-0.0221905
-0.0154812
-0.00856444
-0.00353318
-0.271616
-0.269534
-0.262614
-0.251946
-0.239015
-0.224665
-0.209388
-0.193654
-0.177909
-0.162487
-0.147605
-0.133395
-0.119938
-0.107279
-0.0954118
-0.0843039
-0.0739106
-0.0641856
-0.0550662
-0.0465259
-0.03848
-0.0308503
-0.0234853
-0.0165221
-0.00928372
-0.00393702
-0.25446
-0.253603
-0.248356
-0.239654
-0.228753
-0.21637
-0.202928
-0.188844
-0.174534
-0.160326
-0.146439
-0.13302
-0.120171
-0.107951
-0.0963845
-0.0854626
-0.0751618
-0.0654504
-0.0562906
-0.0476435
-0.039434
-0.0315974
-0.0240173
-0.0168499
-0.00941524
-0.00394324
-0.242108
-0.241925
-0.237723
-0.230226
-0.220588
-0.209457
-0.197207
-0.184227
-0.170916
-0.157584
-0.144442
-0.131638
-0.119284
-0.10745
-0.0961753
-0.0854685
-0.0753189
-0.0657064
-0.0565973
-0.0479512
-0.0397093
-0.031829
-0.0241955
-0.0169638
-0.00945701
-0.00394458
-0.232831
-0.233126
-0.2297
-0.223233
-0.214709
-0.204671
-0.193441
-0.18139
-0.168926
-0.156348
-0.143845
-0.131559
-0.119606
-0.108069
-0.0969987
-0.0864192
-0.0763333
-0.0667295
-0.0575818
-0.0488609
-0.0405242
-0.0325426
-0.0247955
-0.0174423
-0.00978786
-0.00413088
-0.226479
-0.226179
-0.222357
-0.215926
-0.207683
-0.198054
-0.187321
-0.175829
-0.163965
-0.151994
-0.140079
-0.128341
-0.116886
-0.105793
-0.0951115
-0.0848665
-0.0750644
-0.0656953
-0.0567398
-0.0481748
-0.0399588
-0.0320664
-0.0243833
-0.0170757
-0.00949201
-0.00394129
0.619235
0.622518
0.631103
0.644139
0.660295
0.678296
0.695577
0.7081
0.705349
0.678302
0.632553
0.636271
0.646183
0.661452
0.680837
0.70337
0.726847
0.74777
0.755299
0.742644
0.645414
0.649591
0.660857
0.678407
0.701116
0.728362
0.75839
0.788373
0.807646
0.811332
0.657764
0.662411
0.675023
0.694847
0.720902
0.752947
0.789772
0.829337
0.861664
0.883287
0.669543
0.674661
0.688602
0.710682
0.740088
0.776996
0.820829
0.870454
0.917029
0.958625
0.680694
0.686276
0.701517
0.725813
0.758538
0.80031
0.851273
0.911306
0.973192
1.03661
0.691157
0.69719
0.71369
0.740138
0.776111
0.822692
0.880817
0.951476
1.02953
1.11645
0.700877
0.707342
0.725045
0.753555
0.792666
0.843934
0.909147
0.990482
1.08531
1.19711
0.709799
0.716671
0.735509
0.765967
0.808062
0.863828
0.935937
1.02781
1.13968
1.27728
0.717872
0.725121
0.745009
0.777277
0.822161
0.882163
0.960852
1.06291
1.19171
1.35545
0.725048
0.732639
0.753481
0.787395
0.834831
0.898735
0.983558
1.09522
1.24039
1.4299
0.731284
0.739178
0.760864
0.796238
0.845947
0.91335
1.00373
1.12419
1.28469
1.49874
0.736542
0.744696
0.767103
0.803729
0.855397
0.92583
1.02106
1.14927
1.32355
1.56003
0.740789
0.749155
0.772153
0.809805
0.863082
0.936016
1.03529
1.16999
1.35601
1.61188
0.743997
0.752527
0.775975
0.81441
0.868921
0.943776
1.04617
1.18592
1.38118
1.65253
0.746148
0.754787
0.778539
0.817504
0.872849
0.949008
1.05352
1.19672
1.39837
1.68051
0.747228
0.75592
0.779826
0.819057
0.874823
0.951641
1.05723
1.20218
1.40707
1.69474
0.747228
0.75592
0.779826
0.819057
0.874823
0.951641
1.05723
1.20218
1.40707
1.69474
0.746148
0.754787
0.778539
0.817504
0.872849
0.949009
1.05352
1.19673
1.39837
1.68051
0.743998
0.752527
0.775975
0.814411
0.868921
0.943777
1.04617
1.18592
1.38118
1.65253
0.740789
0.749156
0.772154
0.809806
0.863083
0.936017
1.03529
1.16999
1.35601
1.61188
0.736543
0.744697
0.767104
0.803731
0.855398
0.925832
1.02106
1.14927
1.32356
1.56004
0.731285
0.73918
0.760865
0.796239
0.845948
0.913352
1.00373
1.12419
1.28469
1.49874
0.725049
0.732641
0.753482
0.787397
0.834833
0.898738
0.98356
1.09522
1.2404
1.4299
0.717873
0.725122
0.745011
0.777279
0.822163
0.882166
0.960855
1.06291
1.19172
1.35546
0.709801
0.716672
0.73551
0.765969
0.808065
0.863831
0.935941
1.02781
1.13969
1.27729
0.700879
0.707343
0.725047
0.753558
0.792669
0.843937
0.909151
0.990487
1.08531
1.19712
0.691159
0.697192
0.713692
0.74014
0.776114
0.822695
0.880821
0.951481
1.02954
1.11646
0.680696
0.686278
0.701519
0.725816
0.758541
0.800314
0.851278
0.911312
0.973199
1.03662
0.669546
0.674664
0.688604
0.710685
0.740092
0.777
0.820834
0.87046
0.917037
0.958635
0.657767
0.662413
0.675026
0.69485
0.720905
0.752951
0.789777
0.829343
0.861672
0.883298
0.645417
0.649593
0.66086
0.67841
0.70112
0.728367
0.758395
0.788379
0.807654
0.811342
0.632555
0.636274
0.646186
0.661455
0.68084
0.703374
0.726853
0.747777
0.755307
0.742655
0.619238
0.622521
0.631106
0.644143
0.660299
0.678301
0.695583
0.708107
0.705357
0.678313
0.607665
0.679085
0.757252
0.827969
0.903844
0.987519
1.07718
1.17167
1.26894
1.36692
1.45883
1.54119
1.59318
1.61714
1.53897
1.42143
0.954711
0.577664
-1.08796
0.683918
0.769851
0.862499
0.943194
1.0315
1.13073
1.23809
1.35256
1.47312
1.59785
1.72201
1.84111
1.94097
2.01679
2.01856
1.97461
1.66307
1.38957
0.0563027
0.762626
0.859991
0.965138
1.05683
1.15831
1.27349
1.39895
1.53408
1.67866
1.83133
1.98873
2.14677
2.2953
2.42741
2.50771
2.54617
2.38204
2.22301
1.21374
0.849527
0.960358
1.07879
1.1829
1.29875
1.43107
1.57606
1.73341
1.90367
2.08613
2.27855
2.47767
2.67621
2.86701
3.02462
3.14836
3.1221
3.07947
2.37094
0.943319
1.06709
1.19831
1.31562
1.44677
1.59708
1.76254
1.94318
2.14026
2.35376
2.58244
2.82404
3.07344
3.32432
3.55796
3.76837
3.87111
3.94665
3.51149
1.04344
1.18038
1.32467
1.45618
1.60354
1.77263
1.95945
2.16437
2.38928
2.63486
2.90074
3.18567
3.48626
3.79736
4.10508
4.40092
4.6232
4.81465
4.62215
1.14908
1.29907
1.45637
1.60267
1.7669
1.95532
2.16414
2.39398
2.64735
2.92556
3.22903
3.55745
3.90881
4.27921
4.65824
5.03652
5.36851
5.67095
5.6899
1.25894
1.42175
1.59193
1.75352
1.93509
2.14318
2.3743
2.62938
2.9114
3.22229
3.56314
3.93446
4.33538
4.76307
5.20969
5.66577
6.09712
6.50301
6.70283
1.37129
1.54645
1.72919
1.90627
2.10534
2.33307
2.5864
2.86656
3.17692
3.51993
3.89727
4.31012
4.75849
5.24046
5.75003
6.278
6.79797
7.2979
7.64982
1.48384
1.67069
1.86543
2.05788
2.27424
2.5212
2.79622
3.10079
3.43858
3.81251
4.22471
4.67691
5.16977
5.70207
6.26909
6.86199
7.4596
8.04284
8.52048
1.59382
1.79142
1.99736
2.20468
2.43772
2.70303
2.9987
3.32643
3.69014
4.09307
4.53776
5.02633
5.55991
6.13778
6.75604
7.40617
8.07035
8.72523
9.30432
1.69796
1.90513
2.12124
2.34251
2.59115
2.87345
3.18817
3.53723
3.92467
4.35402
4.8281
5.34931
5.91911
6.53708
7.19985
7.89908
8.6189
9.33331
9.99118
1.7927
2.00801
2.23301
2.46687
2.72953
3.02697
3.3586
3.72655
4.13491
4.58741
5.08711
5.63657
6.23745
6.88953
7.58969
8.32971
9.09475
9.85702
10.5741
1.87432
2.09617
2.32858
2.57323
2.84782
3.15804
3.50392
3.88776
4.31364
4.78544
5.30638
5.87913
6.50545
7.18523
7.91549
8.68812
9.4887
10.2886
11.0499
1.93932
2.16594
2.40415
2.65737
2.94135
3.26156
3.61858
4.01481
4.45432
4.94106
5.47837
6.06901
6.71476
7.41561
8.16864
8.9659
9.7932
10.622
11.4159
1.98465
2.21422
2.4565
2.71573
3.00616
3.33322
3.6979
4.10264
4.55147
5.0484
5.59685
6.1996
6.85847
7.57349
8.34181
9.15565
10.0011
10.8503
11.6666
2.00788
2.23865
2.48307
2.74541
3.03908
3.36958
3.73812
4.14713
4.60063
5.10264
5.65662
6.26535
6.93067
7.6526
8.4283
9.25012
10.1042
10.9638
11.7916
2.00788
2.23865
2.48307
2.74542
3.03908
3.36958
3.73812
4.14714
4.60063
5.10264
5.65662
6.26535
6.93068
7.6526
8.42831
9.25012
10.1042
10.9638
11.7916
1.98466
2.21422
2.4565
2.71573
3.00616
3.33323
3.69791
4.10264
4.55147
5.04841
5.59685
6.1996
6.85848
7.5735
8.34182
9.15566
10.0011
10.8503
11.6667
1.93933
2.16594
2.40415
2.65738
2.94135
3.26156
3.61859
4.01482
4.45433
4.94107
5.47838
6.06901
6.71477
7.41562
8.16865
8.96591
9.79321
10.622
11.416
1.87433
2.09617
2.32858
2.57324
2.84783
3.15805
3.50393
3.88777
4.31365
4.78545
5.30639
5.87914
6.50546
7.18524
7.91551
8.68814
9.48871
10.2886
11.0499
1.7927
2.00802
2.23301
2.46688
2.72954
3.02698
3.35861
3.72656
4.13492
4.58742
5.08712
5.63659
6.23747
6.88955
7.58971
8.32974
9.09477
9.85705
10.5741
1.69797
1.90514
2.12125
2.34252
2.59116
2.87346
3.18819
3.53724
3.92469
4.35403
4.82812
5.34933
5.91913
6.53711
7.19987
7.89911
8.61893
9.33334
9.99122
1.59383
1.79143
1.99738
2.20469
2.43774
2.70305
2.99872
3.32645
3.69015
4.09309
4.53778
5.02635
5.55993
6.1378
6.75607