/*--------------------------------*- C++ -*----------------------------------*\
| =========                 |                                                 |
| \\      /  F ield         | OpenFOAM: The Open Source CFD Toolbox           |
|  \\    /   O peration     | Version:  2412                                  |
|   \\  /    A nd           | Website:  www.openfoam.com                      |
|    \\/     M anipulation  |                                                 |
\*---------------------------------------------------------------------------*/
FoamFile
{
    version     2.0;
    format      ascii;
    arch        "LSB;label=32;scalar=64";
    class       surfaceScalarField;
    location    "1500";
    object      phi;
}
// * * * * * * * * * * * * * * * * * * * * * * * * * * * * * * * * * * * * * //

dimensions      [0 3 -1 0 0 0 0];

oriented        oriented;

internalField   nonuniform List<scalar> 
12436
(
4.6872
0.00497115
-0.00466765
4.68636
0.0149001
-0.0140659
4.68505
0.0254443
-0.0241359
4.68342
0.0370807
-0.035447
4.68172
0.0503014
-0.0486036
4.68043
0.065661
-0.0643652
4.68028
0.0837446
-0.0835949
4.68258
0.105299
-0.107602
4.68891
0.130589
-0.136923
0.161783
4.70041
-0.173282
4.68741
0.00506078
4.68714
0.0151666
4.68681
0.0257801
4.68659
0.037294
4.68682
0.0500771
4.68798
0.0645005
4.69082
0.0809007
4.69653
0.0995912
4.70674
0.120379
0.143119
4.72541
4.68756
0.00499604
4.68777
0.0149638
4.68821
0.0253336
4.68911
0.0364002
4.69077
0.0484193
4.69366
0.0616112
4.69843
0.0761236
4.70602
0.0920055
4.71741
0.10899
0.126769
4.73376
4.68769
0.00480558
4.68825
0.0144015
4.6893
0.0242898
4.69101
0.0346852
4.69368
0.0457502
4.6977
0.0575931
4.70359
0.0702357
4.71201
0.0835808
4.72375
0.0972533
0.110584
4.73993
4.68778
0.00452767
4.68861
0.0135724
4.69008
0.0228176
4.69236
0.032406
4.69568
0.0424288
4.70036
0.0529165
4.70678
0.0638147
4.71541
0.0749526
4.72668
0.0859812
0.0962974
4.74096
4.68784
0.00418973
4.68885
0.0125622
4.6906
0.0210609
4.69324
0.0297711
4.69694
0.0387319
4.70193
0.0479244
4.70849
0.0572535
4.71692
0.0665235
4.72749
0.0754092
0.083316
4.74047
4.68788
0.0038145
4.689
0.0114393
4.69093
0.0191338
4.69376
0.0269406
4.69762
0.034863
4.7027
0.0428534
4.70915
0.0507997
4.71717
0.0585078
4.72687
0.0657054
0.0718974
4.73829
4.6879
0.00341924
4.68908
0.0102555
4.69109
0.0171215
4.694
0.0240301
4.6979
0.0309625
4.7029
0.0378564
4.7091
0.044598
4.7166
0.0510088
4.72545
0.0568603
0.061724
4.73562
4.6879
0.00301613
4.68911
0.00904727
4.69115
0.0150828
4.69406
0.0211172
4.69791
0.0271193
4.70274
0.0330221
4.70862
0.0387184
4.71558
0.0440517
4.7236
0.0488408
0.0527454
4.73258
4.6879
0.0026128
4.68911
0.00783759
4.69114
0.0130542
4.69401
0.0182483
4.69775
0.0233828
4.70238
0.0283923
4.70791
0.0331809
4.71435
0.0376159
4.72164
0.0415481
0.0446863
4.7297
4.6879
0.00221296
4.6891
0.00663778
4.6911
0.0110535
4.6939
0.0154441
4.69752
0.0197714
4.70193
0.0239748
4.70714
0.0279718
4.71311
0.0316525
4.71974
0.0349094
0.0375384
4.72689
4.6879
0.00181686
4.68909
0.00544887
4.69105
0.00908383
4.69379
0.0127067
4.69728
0.0162795
4.70151
0.0197493
4.70643
0.0230475
4.712
0.0260865
4.71814
0.0287664
0.0308818
4.7248
4.6879
0.00142126
4.68909
0.00425906
4.69103
0.00713437
4.69372
0.0100262
4.6971
0.0128949
4.70115
0.0156953
4.70583
0.0183726
4.71106
0.0208587
4.71671
0.0231084
0.0250542
4.72254
4.6879
0.00102002
4.68911
0.00304827
4.69107
0.00517397
4.69374
0.00735379
4.69709
0.00955213
4.70105
0.0117309
4.70558
0.0138439
4.7106
0.0158407
4.71606
0.0176468
0.0191103
4.722
4.68795
0.000568933
4.68918
0.00181911
4.69113
0.00322635
4.69376
0.00471676
4.69704
0.00627983
4.70089
0.00787395
4.70528
0.00946224
4.71011
0.0110111
4.71521
0.0125379
0.0141469
4.72018
4.68818
4.68958
4.6917
4.69448
4.69784
4.70175
4.70615
4.71098
4.71624
4.72199
4.70046
-0.0498844
0.0498353
4.70197
-0.04131
0.0398023
4.7051
-0.032774
0.0296467
4.70993
-0.0242601
0.0194236
4.71655
-0.0158389
0.0092182
4.72501
-0.00757977
-0.000878964
4.73532
0.000463601
-0.0107703
4.74743
0.0082366
-0.0203433
4.76123
0.0156898
-0.0294888
4.77655
0.0227612
-0.0380897
4.79319
0.0293993
-0.0460374
4.81087
0.0355607
-0.0532349
4.82926
0.0412115
-0.0596023
4.84801
0.0463295
-0.0650844
4.86676
0.050905
-0.0696552
4.88514
0.0549426
-0.0733214
4.9028
0.0584557
-0.0761189
4.91944
0.061477
-0.0781167
4.93482
0.0639977
-0.0793763
4.94872
0.0661443
-0.0800459
4.96085
0.0683345
-0.080457
4.97119
0.0700906
-0.0804358
4.97975
0.0716313
-0.0801933
4.98656
0.0730553
-0.0798597
4.99167
0.0744374
-0.0795516
4.99521
0.0758428
-0.079376
4.9973
0.0773282
-0.0794258
4.99814
0.0789427
-0.0797788
4.99791
0.0807287
-0.0804991
4.99683
0.0827166
-0.0816318
4.9951
0.0849464
-0.0832197
4.99295
0.0873668
-0.0852218
4.99074
0.0900491
-0.0878407
0.0926774
4.98825
-0.0901841
4.72594
-0.0504229
4.72754
-0.0429106
4.73024
-0.0354668
4.73408
-0.0281067
4.73911
-0.0208667
4.74531
-0.0137785
4.75264
-0.00686878
4.76105
-0.000169846
4.77045
0.00628533
4.78075
0.0124652
4.79181
0.018342
4.80347
0.0238932
4.81558
0.0291016
4.82796
0.0339568
4.84041
0.0384563
4.85274
0.0426052
4.86478
0.0464197
4.87634
0.0499146
4.88723
0.0531055
4.89741
0.0559712
4.90703
0.0587119
4.91574
0.0613818
4.92354
0.0638322
4.93041
0.0661801
4.93637
0.0684824
4.94143
0.0707817
4.94564
0.0731176
4.94906
0.0755269
4.95174
0.0780431
4.95376
0.0806924
4.9552
0.0835126
4.95609
0.0864729
4.95655
0.0895923
0.0928321
4.95639
4.73294
-0.0496019
4.733
-0.042979
4.73402
-0.036478
4.73599
-0.0300793
4.73891
-0.0237903
4.74276
-0.0176308
4.74752
-0.0116209
4.75313
-0.00577884
4.75953
-0.000119979
4.76665
0.00534091
4.77441
0.0105905
4.78268
0.0156181
4.79137
0.0204163
4.80034
0.0249814
4.80948
0.0293138
4.81867
0.0334178
4.82779
0.0373043
4.83672
0.0409786
4.84539
0.0444424
4.8537
0.0476587
4.8616
0.0508145
4.86901
0.0539648
4.87591
0.0569365
4.88227
0.0598175
4.88811
0.0626471
4.89343
0.0654545
4.89829
0.0682653
4.90271
0.071103
4.90676
0.0739885
4.91052
0.0769402
4.91405
0.0799763
4.91742
0.083105
4.92066
0.0863518
0.0896602
4.92383
4.73866
-0.0483258
4.73818
-0.0425014
4.73847
-0.0367717
4.73952
-0.0311242
4.74129
-0.0255676
4.74378
-0.0201147
4.74693
-0.0147769
4.75072
-0.00956422
4.75509
-0.00448577
4.75998
0.000448734
4.76534
0.00523126
4.7711
0.00985568
4.7772
0.014318
4.78356
0.0186168
4.79012
0.0227527
4.79681
0.0267292
4.80356
0.0305519
4.81031
0.0342291
4.81698
0.0377729
4.82345
0.0411965
4.82973
0.0445263
4.83596
0.0477391
4.84199
0.0509087
4.8478
0.0540062
4.85338
0.0570616
4.85874
0.0600948
4.86389
0.0631229
4.86883
0.0661622
4.87359
0.0692285
4.87819
0.0723364
4.88267
0.0754998
4.88704
0.0787279
4.89135
0.0820428
0.0854042
4.89561
4.73883
-0.0461918
4.73734
-0.0410107
4.73649
-0.0359186
4.73626
-0.0309001
4.73665
-0.0259585
4.73764
-0.0211018
4.7392
-0.0163373
4.74131
-0.011671
4.74393
-0.0071086
4.74703
-0.00265506
4.75058
0.00168592
4.75452
0.00591177
4.75882
0.0100212
4.76342
0.0140143
4.76828
0.0178924
4.77335
0.0216584
4.77859
0.0253166
4.78395
0.0288728
4.78938
0.0323344
4.79487
0.0357077
4.80039
0.0390108
4.80591
0.0422207
4.8114
0.0454137
4.81686
0.0485508
4.82227
0.0516515
4.82763
0.0547294
4.83296
0.0577964
4.83826
0.0608635
4.84355
0.0639412
4.84884
0.0670393
4.85418
0.0701672
4.85957
0.0733315
4.86507
0.0765456
0.07979
4.87068
4.73777
-0.0434853
4.73565
-0.0388937
4.73411
-0.0343752
4.73312
-0.0299171
4.73269
-0.0255213
4.73278
-0.0211926
4.73337
-0.0169355
4.73446
-0.0127532
4.736
-0.0086491
4.73797
-0.00462583
4.74034
-0.000685456
4.74308
0.00317035
4.74616
0.00694099
4.74955
0.0106267
4.75321
0.0142286
4.75712
0.017749
4.76125
0.0211909
4.76556
0.0245585
4.77004
0.0278566
4.77466
0.031091
4.7794
0.0342683
4.78422
0.0373952
4.78916
0.0404802
4.79418
0.0435293
4.79928
0.0465501
4.80446
0.0495512
4.80971
0.052541
4.81505
0.0555272
4.82047
0.0585174
4.82599
0.0615192
4.83162
0.0645396
4.83737
0.0675843
4.84325
0.0706637
0.0737639
4.84928
4.73499
-0.0401866
4.73222
-0.03612
4.72996
-0.0321156
4.7282
-0.0281615
4.72694
-0.0242582
4.72615
-0.0204086
4.72583
-0.0166157
4.72596
-0.0128818
4.72652
-0.00920881
4.72749
-0.00559832
4.72886
-0.00205169
4.7306
0.00143067
4.73269
0.00484855
4.73512
0.00820283
4.73785
0.0114946
4.74087
0.0147255
4.74417
0.0178981
4.74771
0.0210153
4.75149
0.0240806
4.75548
0.027098
4.75968
0.030072
4.76406
0.0330074
4.76863
0.0359092
4.77338
0.0387834
4.7783
0.0416349
4.78338
0.0444693
4.78863
0.0472921
4.79404
0.0501087
4.79964
0.0529245
4.80541
0.0557445
4.81138
0.0585737
4.81755
0.0614159
4.82393
0.0642775
0.0671526
4.83054
4.73187
-0.03644
4.72862
-0.0328699
4.72586
-0.0293504
4.72357
-0.025872
4.72174
-0.0224347
4.72038
-0.0190404
4.71945
-0.0156908
4.71896
-0.0123873
4.71888
-0.0091309
4.7192
-0.00592267
4.71991
-0.00276296
4.721
0.000347946
4.72243
0.00341015
4.72421
0.00642412
4.72632
0.0093909
4.72873
0.0123118
4.73144
0.0151885
4.73443
0.0180234
4.73769
0.0208187
4.74121
0.0235775
4.74498
0.0263029
4.74899
0.0289982
4.75324
0.0316672
4.7577
0.0343137
4.7624
0.0369416
4.76731
0.0395547
4.77245
0.0421574
4.7778
0.0447535
4.78338
0.047347
4.78918
0.0499418
4.79521
0.0525418
4.80148
0.0551501
4.80799
0.0577719
0.060403
4.81474
4.72842
-0.0322888
4.72474
-0.0291862
4.72152
-0.0261257
4.71874
-0.0230989
4.71641
-0.0201052
4.71452
-0.0171459
4.71305
-0.0142222
4.712
-0.011335
4.71135
-0.00848496
4.7111
-0.00567271
4.71124
-0.00289854
4.71175
-0.000162538
4.71262
0.0025355
4.71385
0.00519619
4.71542
0.0078203
4.71732
0.0104089
4.71955
0.0129634
4.72209
0.0154852
4.72493
0.0179766
4.72807
0.0204392
4.73149
0.0228756
4.7352
0.0252883
4.73919
0.0276798
4.74345
0.0300529
4.74798
0.0324105
4.75278
0.0347553
4.75785
0.0370905
4.76319
0.0394187
4.76879
0.0417429
4.77467
0.0440657
4.78082
0.0463898
4.78725
0.0487175
4.79397
0.0510518
0.0533917
4.80098
4.72524
-0.0278305
4.72124
-0.0251819
4.71768
-0.0225661
4.71456
-0.0199775
4.71187
-0.0174156
4.7096
-0.0148813
4.70776
-0.0123754
4.70632
-0.00989816
4.70529
-0.0074504
4.70465
-0.00503214
4.70439
-0.00264368
4.70451
-0.000284971
4.705
0.00204427
4.70586
0.00434439
4.70706
0.00661609
4.70861
0.00886005
4.7105
0.0110774
4.71271
0.0132693
4.71525
0.0154372
4.71811
0.0175826
4.72128
0.0197072
4.72475
0.0218129
4.72853
0.0239015
4.73261
0.0259752
4.73698
0.0280361
4.74165
0.0300862
4.74661
0.0321278
4.75187
0.0341631
4.75742
0.036194
4.76326
0.0382231
4.7694
0.0402524
4.77583
0.0422836
4.78256
0.0443192
0.0463589
4.7896
4.72216
-0.0230952
4.71786
-0.0208846
4.714
-0.0187027
4.71056
-0.0165428
4.70755
-0.0144037
4.70495
-0.0122865
4.70277
-0.0101918
4.70099
-0.00812009
4.69961
-0.00607164
4.69863
-0.00404663
4.69803
-0.00204524
4.69781
-6.73394e-05
4.69797
0.00188705
4.6985
0.00381853
4.69938
0.00572745
4.70063
0.00761447
4.70223
0.00948039
4.70417
0.0113261
4.70646
0.0131526
4.70908
0.0149611
4.71203
0.0167528
4.71531
0.0185291
4.71892
0.0202914
4.72286
0.0220415
4.72711
0.0237805
4.73169
0.0255105
4.73659
0.0272327
4.7418
0.028949
4.74733
0.0306611
4.75318
0.0323706
4.75936
0.0340782
4.76586
0.0357855
4.77268
0.0374938
0.0392039
4.77984
4.71988
-0.018171
4.71538
-0.0163942
4.71132
-0.0146351
4.70767
-0.0128934
4.70443
-0.0111692
4.70161
-0.00946256
4.69919
-0.00777381
4.69717
-0.00610317
4.69555
-0.00445108
4.69432
-0.00281754
4.69348
-0.00120283
4.69302
0.000393172
4.69294
0.0019706
4.69323
0.00352971
4.69388
0.00507072
4.6949
0.00659433
4.69628
0.00810096
4.69802
0.00959133
4.7001
0.0110663
4.70254
0.0125267
4.70532
0.0139734
4.70844
0.0154077
4.7119
0.0168305
4.7157
0.0182432
4.71983
0.0196471
4.7243
0.0210435
4.7291
0.0224333
4.73423
0.0238133
4.7397
0.0251913
4.7455
0.0265738
4.75163
0.0279507
4.75809
0.0293258
4.76488
0.0307012
0.0320779
4.77201
4.71744
-0.0130643
4.71275
-0.0117077
4.70849
-0.010372
4.70464
-0.00904845
4.70121
-0.00773665
4.69818
-0.00643805
4.69556
-0.00515357
4.69334
-0.00388344
4.69152
-0.0026279
4.69009
-0.0013871
4.68905
-0.000161041
4.68839
0.00105018
4.68812
0.00224631
4.68822
0.00342784
4.68869
0.00459482
4.68954
0.00574772
4.69075
0.00688694
4.69233
0.00801288
4.69427
0.00912624
4.69657
0.0102275
4.69923
0.0113174
4.70224
0.0123966
4.7056
0.0134657
4.70932
0.0145251
4.71339
0.0155787
4.71781
0.0166279
4.72257
0.0176724
4.72767
0.018707
4.73312
0.0197425
4.73892
0.0207797
4.74505
0.0218158
4.75153
0.022844
4.75836
0.0238701
0.0248959
4.76555
4.71678
-0.00784259
4.71198
-0.00690761
4.70759
-0.00597584
4.70359
-0.00505601
4.70001
-0.00414899
4.69682
-0.00325295
4.69404
-0.00236774
4.69165
-0.00149385
4.68965
-0.000631698
4.68804
0.000218632
4.68683
0.00105687
4.68599
0.00188316
4.68554
0.00269721
4.68547
0.00349921
4.68578
0.00428946
4.68646
0.00506813
4.68751
0.00583559
4.68893
0.00659222
4.69072
0.0073383
4.69287
0.00807428
4.69539
0.00880063
4.69826
0.00951766
4.7015
0.0102259
4.7051
0.010925
4.70906
0.0116185
4.71338
0.0123097
4.71806
0.0129982
4.72308
0.0136823
4.72846
0.0143663
4.73419
0.0150454
4.74028
0.0157275
4.74672
0.0164036
4.75351
0.0170776
0.017748
4.76066
4.71492
-0.00258672
4.71005
-0.00203986
4.70559
-0.00151514
4.70154
-0.000999725
4.69788
-0.000491271
4.69462
8.19728e-06
4.69175
0.000497615
4.68928
0.000976938
4.6872
0.00144657
4.68552
0.00190634
4.68422
0.00235627
4.6833
0.0027961
4.68277
0.00322605
4.68263
0.00364624
4.68286
0.00405691
4.68347
0.00445806
4.68446
0.00485021
4.68581
0.00523334
4.68754
0.00560816
4.68964
0.00597473
4.69211
0.00633372
4.69494
0.00668534
4.69814
0.0070301
4.7017
0.00736841
4.70561
0.00770105
4.70989
0.00803023
4.71453
0.00835687
4.71954
0.00868057
4.7249
0.00900153
4.73063
0.0093198
4.73672
0.00963623
4.74317
0.00995353
4.74998
0.0102695
0.0105908
4.75713
4.71656
4.71154
4.70692
4.70269
4.69886
4.69543
4.6924
4.68976
4.68752
4.68567
4.68421
4.68313
4.68244
4.68214
4.68222
4.68267
4.68351
4.68473
4.68632
4.68828
4.69062
4.69333
4.69642
4.69987
4.70369
4.70789
4.71245
4.71739
4.7227
4.72839
4.73445
4.74089
4.7477
4.75489
4.95357
-0.070335
0.105021
4.92082
-0.0831553
0.115899
4.89234
-0.0885652
0.117049
4.86917
-0.0873119
0.110481
4.85089
-0.0820375
0.100318
4.83695
-0.0756112
0.0895529
4.82659
-0.0685992
0.078957
4.81897
-0.0614023
0.069019
4.81341
-0.0545202
0.0600794
4.80938
-0.0482189
0.052255
4.80646
-0.042575
0.045494
4.80437
-0.0376111
0.0396965
4.80287
-0.0332363
0.0347378
4.80177
-0.0294005
0.0305029
4.80098
-0.0261228
0.0269093
4.80042
-0.0233153
0.0238741
4.80002
-0.0209068
0.0213083
4.79973
-0.0188472
0.0191347
4.79953
-0.0170993
0.0173034
4.79939
-0.0156309
0.0157731
4.79929
-0.0144136
0.0145082
4.79923
-0.0134248
0.0134837
4.79921
-0.0126483
0.0126727
4.79921
-0.0120654
0.0120689
4.79923
-0.0116938
0.0116663
-0.0114047
0.0114293
4.92883
-0.0427678
4.90223
-0.0565531
4.87911
-0.0654522
4.85947
-0.067673
4.84355
-0.0661169
4.8307
-0.0627542
4.82061
-0.058514
4.81289
-0.0536771
4.80699
-0.0486255
4.80252
-0.0437519
4.79914
-0.0391868
4.79651
-0.0349859
4.79453
-0.0312512
4.79309
-0.0279629
4.79199
-0.0250225
4.79112
-0.0224509
4.79044
-0.0202239
4.7899
-0.0183075
4.78947
-0.0166697
4.78912
-0.0152847
4.78884
-0.0141319
4.78861
-0.0131929
4.78842
-0.0124577
4.78826
-0.0119061
4.78814
-0.0115707
-0.0113274
4.90528
-0.0242185
4.88693
-0.038195
4.8692
-0.0477209
4.8535
-0.0519802
4.84026
-0.0528783
4.8291
-0.0515902
4.81979
-0.0492057
4.81225
-0.0461404
4.80624
-0.0426059
4.8015
-0.0390149
4.79774
-0.0354293
4.79478
-0.0320271
4.79241
-0.0288836
4.7905
-0.0260494
4.78898
-0.0235066
4.78776
-0.0212274
4.78676
-0.0192219
4.78593
-0.0174782
4.78524
-0.0159758
4.78465
-0.0146965
4.78414
-0.0136264
4.7837
-0.0127521
4.78331
-0.0120661
4.78297
-0.0115623
4.78262
-0.0112261
-0.0110306
4.88313
-0.0117358
4.86955
-0.0246187
4.85531
-0.0334798
4.84237
-0.0390415
4.83095
-0.0414601
4.82109
-0.0417293
4.8126
-0.0407126
4.80539
-0.0389275
4.79941
-0.036634
4.79455
-0.0341505
4.79057
-0.0314551
4.78734
-0.0287913
4.78471
-0.0262504
4.78253
-0.0238779
4.78073
-0.021704
4.77924
-0.0197337
4.77799
-0.0179717
4.77693
-0.0164192
4.77602
-0.0150686
4.77523
-0.01391
4.77454
-0.0129351
4.77392
-0.0121326
4.77336
-0.0115014
4.77284
-0.0110401
4.77233
-0.0107208
-0.0105251
4.86227
-0.0033178
4.85228
-0.0146338
4.84166
-0.0228604
4.83126
-0.0286369
4.82173
-0.0319313
4.81328
-0.0332839
4.80588
-0.0333149
4.79947
-0.0325082
4.79396
-0.0311317
4.78927
-0.0294539
4.78533
-0.0275143
4.78202
-0.0254882
4.77928
-0.0235034
4.77696
-0.0215649
4.775
-0.019744
4.77334
-0.0180671
4.77191
-0.0165455
4.77068
-0.0151869
4.7696
-0.0139929
4.76865
-0.0129609
4.76781
-0.0120913
4.76704
-0.0113612
4.76632
-0.0107871
4.76564
-0.0103562
4.76503
-0.0101117
-0.00998674
4.84355
0.00241181
4.83624
-0.00733006
4.82831
-0.0149249
4.82005
-0.0203838
4.81213
-0.0240088
4.80482
-0.0259736
4.79829
-0.0267814
4.79251
-0.0267259
4.7874
-0.0260263
4.78289
-0.0249456
4.779
-0.0236193
4.77565
-0.0221408
4.77279
-0.0206405
4.77033
-0.0191057
4.76821
-0.0176245
4.76637
-0.0162316
4.76477
-0.0149467
4.76337
-0.0137825
4.76212
-0.0127472
4.76101
-0.0118442
4.76
-0.0110792
4.75907
-0.0104325
4.7582
-0.00992145
4.75738
-0.00953969
4.75657
-0.00929399
-0.00912711
4.8268
0.00615973
4.8216
-0.00213712
4.8155
-0.00882388
4.80901
-0.0138939
4.8025
-0.0174955
4.79631
-0.0197857
4.79058
-0.0210553
4.78539
-0.0215284
4.78073
-0.0213678
4.77659
-0.0208031
4.77293
-0.0199642
4.76971
-0.0189154
4.76685
-0.0177873
4.76435
-0.0166078
4.76217
-0.015439
4.76025
-0.0143136
4.75856
-0.0132561
4.75706
-0.0122793
4.75571
-0.011398
4.75448
-0.0106193
4.75336
-0.00995227
4.75231
-0.00939129
4.75134
-0.00894749
4.75042
-0.00861788
4.74956
-0.00843931
-0.00837091
4.81227
0.00862566
4.80849
0.00164599
4.80386
-0.00419855
4.79876
-0.00879284
4.79348
-0.0122178
4.7883
-0.0145994
4.78334
-0.0161026
4.77871
-0.0168958
4.77448
-0.017133
4.77064
-0.0169653
4.76718
-0.0165039
4.76407
-0.0158034
4.76125
-0.0149738
4.75874
-0.0140959
4.7565
-0.0132016
4.75451
-0.0123184
4.75272
-0.0114718
4.75111
-0.0106689
4.74965
-0.00993352
4.74831
-0.00927831
4.74707
-0.00871569
4.74592
-0.00823982
4.74483
-0.0078583
4.74379
-0.00757285
4.74273
-0.00738714
-0.00727275
4.79948
0.0101265
4.79683
0.00429586
4.79332
-0.000688713
4.78928
-0.00474834
4.78496
-0.0079003
4.78058
-0.0102202
4.77629
-0.0118123
4.77219
-0.0127966
4.76835
-0.0132894
4.76478
-0.013398
4.7615
-0.0132203
4.75852
-0.0128227
4.75581
-0.0122676
4.75336
-0.0116451
4.75114
-0.0109837
4.74913
-0.0103107
4.74731
-0.00965127
4.74565
-0.00900333
4.74411
-0.00839875
4.74269
-0.00785974
4.74138
-0.0073976
4.74014
-0.00700485
4.73897
-0.00668934
4.73785
-0.00645358
4.73679
-0.00632782
-0.00629763
4.78871
0.0110165
4.7868
0.006206
4.78413
0.00198235
4.78092
-0.00154012
4.77738
-0.00436228
4.77369
-0.00652917
4.76998
-0.00810668
4.76636
-0.00917503
4.76289
-0.00981873
4.75961
-0.0101198
4.75655
-0.0101538
4.75371
-0.00998218
4.7511
-0.00966116
4.7487
-0.00924889
4.7465
-0.00878124
4.74448
-0.00828641
4.74261
-0.00778678
4.7409
-0.00728915
4.73931
-0.00680954
4.73783
-0.00637801
4.73643
-0.00600652
4.73512
-0.00569123
4.73387
-0.00543706
4.73266
-0.00524834
4.73146
-0.00512898
-0.00505973
4.77942
0.0114367
4.77811
0.00751549
4.77606
0.00402544
4.77349
0.00103607
4.77056
-0.0014293
4.76741
-0.00338803
4.76419
-0.00487923
4.76097
-0.00595544
4.75782
-0.00667614
4.75481
-0.00710154
4.75194
-0.00728886
4.74925
-0.00728935
4.74674
-0.00714873
4.7444
-0.00690978
4.74222
-0.00660694
4.7402
-0.00626599
4.73832
-0.00590671
4.73658
-0.00554737
4.73496
-0.00519128
4.73345
-0.00486399
4.73202
-0.00457981
4.73067
-0.00433518
4.72937
-0.00413678
4.72811
-0.00399014
4.72689
-0.00391
-0.00388185
4.77185
0.0115894
4.77091
0.00846344
4.76931
0.00561746
4.76722
0.00313478
4.76475
0.00103752
4.76204
-0.000679252
4.7592
-0.00203662
4.75631
-0.00306714
4.75344
-0.00381013
4.75065
-0.0043073
4.74796
-0.00460031
4.7454
-0.00472867
4.74298
-0.00472862
4.7407
-0.00463345
4.73857
-0.00447174
4.73657
-0.00426602
4.7347
-0.00403433
4.73294
-0.0037914
4.7313
-0.00354755
4.72975
-0.00331751
4.72828
-0.00311491
4.72689
-0.00293642
4.72554
-0.00279048
4.72423
-0.00268268
4.72294
-0.00261755
-0.00258048
4.76561
0.0115281
4.76496
0.00911048
4.7637
0.00687703
4.76196
0.00487692
4.75985
0.00314309
4.75749
0.00168277
4.75497
0.000487067
4.75236
-0.000462294
4.74974
-0.00118849
4.74715
-0.00171766
4.74463
-0.00207812
4.7422
-0.00229863
4.73988
-0.00240657
4.73767
-0.00242732
4.73558
-0.0023833
4.73361
-0.00229329
4.73175
-0.00217279
4.72999
-0.00203502
4.72833
-0.00188975
4.72676
-0.0017464
4.72526
-0.00161603
4.72383
-0.00150064
4.72244
-0.00140655
4.7211
-0.00133761
4.71978
-0.00129616
-0.00127384
4.76081
0.0113787
4.7603
0.00962055
4.75924
0.00794262
4.75771
0.00639866
4.75584
0.00502129
4.7537
0.00382219
4.75138
0.00280049
4.74897
0.00194912
4.74652
0.0012605
4.74408
0.000722408
4.74169
0.000317937
4.73936
2.79009e-05
4.73712
-0.000167003
4.73498
-0.000285098
4.73294
-0.000343132
4.731
-0.000355629
4.72916
-0.000335538
4.72742
-0.000293197
4.72577
-0.000236635
4.72419
-0.000173248
4.72269
-0.000111665
4.72125
-5.63769e-05
4.71985
-1.16169e-05
4.71849
2.03083e-05
4.71716
3.3878e-05
3.47344e-05
4.75736
0.0111487
4.75698
0.0100029
4.75608
0.00884133
4.75475
0.00773173
4.75307
0.0067029
4.75112
0.00577067
4.74898
0.00493589
4.74674
0.00419572
4.74444
0.00356179
4.74212
0.00303465
4.73983
0.0026074
4.73759
0.00226907
4.73542
0.00200733
4.73332
0.00180994
4.73132
0.0016654
4.7294
0.00156344
4.72757
0.00149443
4.72582
0.00145103
4.72416
0.00142655
4.72257
0.00141479
4.72105
0.00140997
4.71958
0.00140785
4.71817
0.00140561
4.71679
0.00140097
4.71542
0.00139828
0.00140066
4.75501
4.75459
4.75367
4.75235
4.75073
4.74886
4.74682
4.74468
4.74248
4.74028
4.73809
4.73595
4.73386
4.73184
4.7299
4.72804
4.72625
4.72455
4.72292
4.72136
4.71985
4.7184
4.717
4.71562
4.71429
4.6872
0.00497124
-0.00466776
4.68636
0.0149004
-0.0140663
4.68505
0.0254446
-0.0241363
4.68342
0.0370811
-0.0354474
4.68172
0.0503017
-0.048604
4.68043
0.0656613
-0.0643656
4.68028
0.0837447
-0.0835952
4.68258
0.105299
-0.107603
4.68892
0.130589
-0.136923
0.161782
4.70042
-0.173283
4.68741
0.00506085
4.68714
0.0151669
4.68681
0.0257804
4.6866
0.0372942
4.68682
0.0500773
4.68798
0.0645006
4.69082
0.0809006
4.69653
0.099591
4.70674
0.120378
0.143118
4.72541
4.68756
0.00499609
4.68777
0.014964
4.68821
0.0253338
4.68911
0.0364004
4.69077
0.0484193
4.69366
0.0616111
4.69843
0.0761234
4.70602
0.0920051
4.71741
0.108989
0.126768
4.73376
4.68769
0.00480563
4.68825
0.0144017
4.6893
0.02429
4.69101
0.0346853
4.69368
0.0457501
4.6977
0.057593
4.70359
0.0702353
4.71201
0.0835802
4.72375
0.0972525
0.110583
4.73993
4.68778
0.0045277
4.68861
0.0135726
4.69008
0.0228177
4.69236
0.032406
4.69568
0.0424287
4.70036
0.0529162
4.70678
0.0638142
4.71541
0.074952
4.72668
0.0859803
0.0962962
4.74097
4.68784
0.00418975
4.68885
0.0125623
4.6906
0.0210609
4.69324
0.029771
4.69694
0.0387317
4.70193
0.0479241
4.70849
0.057253
4.71692
0.0665228
4.72749
0.0754083
0.0833148
4.74047
4.68788
0.00381451
4.689
0.0114394
4.69093
0.0191338
4.69376
0.0269405
4.69762
0.0348628
4.7027
0.042853
4.70915
0.0507992
4.71717
0.0585071
4.72687
0.0657045
0.0718962
4.73829
4.6879
0.00341924
4.68908
0.0102555
4.69109
0.0171214
4.694
0.02403
4.6979
0.0309622
4.7029
0.037856
4.7091
0.0445975
4.7166
0.0510081
4.72545
0.0568594
0.0617228
4.73562
4.6879
0.00301613
4.68911
0.00904729
4.69115
0.0150827
4.69406
0.0211171
4.69791
0.027119
4.70274
0.0330217
4.70862
0.0387179
4.71558
0.044051
4.7236
0.04884
0.0527443
4.73258
4.6879
0.0026128
4.68911
0.00783759
4.69114
0.0130542
4.69401
0.0182481
4.69775
0.0233825
4.70238
0.0283919
4.70791
0.0331804
4.71435
0.0376152
4.72164
0.0415473
0.0446853
4.7297
4.6879
0.00221295
4.6891
0.00663777
4.6911
0.0110535
4.6939
0.0154439
4.69752
0.0197711
4.70193
0.0239745
4.70714
0.0279714
4.71311
0.031652
4.71974
0.0349087
0.0375375
4.72689
4.6879
0.00181685
4.68909
0.00544886
4.69105
0.00908377
4.69379
0.0127066
4.69728
0.0162793
4.70151
0.019749
4.70643
0.0230471
4.712
0.026086
4.71814
0.0287658
0.0308811
4.7248
4.6879
0.00142125
4.68909
0.00425905
4.69103
0.00713431
4.69372
0.0100261
4.6971
0.0128947
4.70115
0.015695
4.70583
0.0183723
4.71106
0.0208583
4.71671
0.0231079
0.0250536
4.72254
4.6879
0.00102001
4.68911
0.00304826
4.69107
0.00517392
4.69374
0.0073537
4.69709
0.009552
4.70105
0.0117308
4.70558
0.0138436
4.7106
0.0158404
4.71606
0.0176464
0.0191098
4.722
4.68795
0.000568929
4.68918
0.0018191
4.69113
0.00322632
4.69376
0.00471671
4.69704
0.00627974
4.70089
0.00787382
4.70528
0.00946207
4.71011
0.0110109
4.71521
0.0125376
0.0141465
4.72018
4.68818
4.68958
4.6917
4.69448
4.69784
4.70175
4.70615
4.71098
4.71624
4.72199
4.70046
-0.0498846
0.0498355
4.70197
-0.0413104
0.0398025
4.7051
-0.0327743
0.029647
4.70994
-0.0242605
0.0194239
4.71656
-0.0158394
0.00921855
4.72502
-0.00758031
-0.000878566
4.73532
0.000462994
-0.0107698
4.74743
0.00823593
-0.0203427
4.76123
0.015689
-0.0294882
4.77656
0.0227603
-0.038089
4.7932
0.0293984
-0.0460367
4.81087
0.0355597
-0.053234
4.82926
0.0412105
-0.0596014
4.84802
0.0463283
-0.0650833
4.86677
0.0509038
-0.069654
4.88515
0.0549412
-0.07332
4.90281
0.0584541
-0.0761173
4.91945
0.0614753
-0.078115
4.93483
0.0639958
-0.0793743
4.94873
0.0661425
-0.0800438
4.96085
0.0683324
-0.0804546
4.97119
0.0700884
-0.0804332
4.97976
0.071629
-0.0801904
4.98656
0.0730529
-0.0798566
4.99167
0.0744348
-0.0795483
4.99521
0.0758401
-0.0793725
4.9973
0.0773255
-0.0794221
4.99814
0.0789398
-0.079775
4.99791
0.0807259
-0.0804953
4.99682
0.0827138
-0.081628
4.99509
0.0849436
-0.0832159
4.99295
0.087364
-0.0852182
4.99074
0.0900464
-0.0878372
0.0926748
4.98824
-0.090181
4.72595
-0.0504233
4.72755
-0.042911
4.73024
-0.0354673
4.73409
-0.0281072
4.73911
-0.0208673
4.74531
-0.0137791
4.75265
-0.00686947
4.76105
-0.000170587
4.77046
0.00628452
4.78075
0.0124643
4.79181
0.0183411
4.80348
0.0238922
4.81559
0.0291005
4.82796
0.0339557
4.84041
0.038455
4.85275
0.0426038
4.86478
0.0464183
4.87634
0.0499131
4.88724
0.0531039
4.89741
0.0559695
4.90703
0.0587102
4.91574
0.0613799
4.92354
0.0638302
4.93041
0.0661781
4.93637
0.0684803
4.94143
0.0707795
4.94564
0.0731154
4.94905
0.0755247
4.95174
0.0780409
4.95376
0.0806902
4.95519
0.0835105
4.95609
0.0864708
4.95654
0.0895902
0.0928302
4.95639
4.73294
-0.0496023
4.73301
-0.0429794
4.73402
-0.0364785
4.73599
-0.0300799
4.73891
-0.0237909
4.74277
-0.0176315
4.74752
-0.0116216
4.75313
-0.0057796
4.75953
-0.000120792
4.76666
0.00534004
4.77441
0.0105895
4.78268
0.0156171
4.79137
0.0204153
4.80034
0.0249803
4.80949
0.0293126
4.81867
0.0334166
4.82779
0.037303
4.83672
0.0409772
4.84539
0.044441
4.8537
0.0476572
4.8616
0.050813
4.86901
0.0539632
4.87591
0.0569348
4.88227
0.0598158
4.88811
0.0626454
4.89343
0.0654527
4.89828
0.0682636
4.90271
0.0711012
4.90676
0.0739867
4.91051
0.0769385
4.91405
0.0799746
4.91742
0.0831033
4.92066
0.0863502
0.0896587
4.92383
4.73866
-0.0483262
4.73818
-0.0425019
4.73847
-0.0367723
4.73952
-0.0311248
4.7413
-0.0255682
4.74378
-0.0201154
4.74694
-0.0147776
4.75072
-0.00956496
4.75509
-0.00448656
4.75998
0.000447898
4.76534
0.00523038
4.7711
0.00985475
4.7772
0.0143171
4.78356
0.0186158
4.79012
0.0227517
4.79681
0.026728
4.80356
0.0305507
4.81031
0.0342279
4.81698
0.0377717
4.82345
0.0411952
4.82973
0.044525
4.83596
0.0477378
4.84199
0.0509074
4.8478
0.0540048
4.85338
0.0570602
4.85874
0.0600934
4.86388
0.0631215
4.86882
0.0661608
4.87358
0.0692272
4.87819
0.0723351
4.88266
0.0754984
4.88704
0.0787266
4.89135
0.0820415
0.0854031
4.8956
4.73883
-0.0461923
4.73734
-0.0410112
4.73649
-0.0359191
4.73626
-0.0309007
4.73665
-0.0259591
4.73764
-0.0211024
4.7392
-0.0163379
4.74131
-0.0116717
4.74393
-0.00710934
4.74704
-0.00265584
4.75058
0.0016851
4.75452
0.00591092
4.75882
0.0100204
4.76342
0.0140134
4.76828
0.0178915
4.77335
0.0216574
4.77859
0.0253156
4.78395
0.0288718
4.78938
0.0323334
4.79487
0.0357066
4.80039
0.0390097
4.80591
0.0422196
4.8114
0.0454126
4.81686
0.0485496
4.82227
0.0516503
4.82763
0.0547282
4.83296
0.0577952
4.83826
0.0608624
4.84354
0.0639401
4.84884
0.0670383
4.85417
0.0701661
4.85957
0.0733304
4.86506
0.0765447
0.0797891
4.87068
4.73777
-0.0434858
4.73565
-0.0388941
4.73411
-0.0343757
4.73312
-0.0299176
4.73269
-0.0255218
4.73278
-0.0211932
4.73337
-0.0169361
4.73446
-0.0127539
4.736
-0.00864979
4.73797
-0.00462654
4.74034
-0.000686202
4.74308
0.00316957
4.74616
0.00694019
4.74955
0.0106259
4.75321
0.0142278
4.75712
0.0177481
4.76125
0.0211901
4.76556
0.0245576
4.77004
0.0278557
4.77466
0.0310901
4.7794
0.0342673
4.78422
0.0373942
4.78916
0.0404793
4.79418
0.0435283
4.79928
0.0465492
4.80446
0.0495503
4.80971
0.05254
4.81505
0.0555262
4.82047
0.0585165
4.82599
0.0615183
4.83162
0.0645388
4.83737
0.0675835
4.84325
0.070663
0.0737632
4.84927
4.73499
-0.0401871
4.73222
-0.0361204
4.72996
-0.0321161
4.7282
-0.0281621
4.72694
-0.0242587
4.72615
-0.0204092
4.72583
-0.0166163
4.72596
-0.0128824
4.72652
-0.00920944
4.72749
-0.00559897
4.72886
-0.00205236
4.7306
0.00142998
4.73269
0.00484784
4.73512
0.0082021
4.73785
0.0114938
4.74087
0.0147247
4.74417
0.0178973
4.74771
0.0210145
4.75148
0.0240798
4.75548
0.0270972
4.75967
0.0300712
4.76406
0.0330066
4.76863
0.0359084
4.77338
0.0387826
4.77829
0.0416341
4.78337
0.0444685
4.78862
0.0472913
4.79404
0.0501079
4.79963
0.0529238
4.80541
0.0557438
4.81137
0.058573
4.81754
0.0614153
4.82393
0.0642769
0.067152
4.83054
4.73187
-0.0364404
4.72862
-0.0328703
4.72586
-0.0293508
4.72357
-0.0258725
4.72174
-0.0224352
4.72038
-0.0190409
4.71945
-0.0156913
4.71896
-0.0123878
4.71888
-0.00913146
4.7192
-0.00592325
4.71991
-0.00276355
4.721
0.000347333
4.72243
0.00340952
4.72421
0.00642348
4.72632
0.00939025
4.72873
0.0123112
4.73144
0.0151879
4.73443
0.0180227
4.73769
0.020818
4.74121
0.0235768
4.74498
0.0263022
4.74899
0.0289975
4.75323
0.0316665
4.7577
0.034313
4.7624
0.0369409
4.76731
0.0395541
4.77244
0.0421568
4.7778
0.0447528
4.78338
0.0473464
4.78918
0.0499412
4.79521
0.0525412
4.80148
0.0551496
4.80798
0.0577714
0.0604025
4.81473
4.72842
-0.0322891
4.72474
-0.0291865
4.72152
-0.0261261
4.71874
-0.0230993
4.71641
-0.0201056
4.71452
-0.0171463
4.71305
-0.0142227
4.712
-0.0113355
4.71135
-0.00848545
4.7111
-0.00567322