/*--------------------------------*- C++ -*----------------------------------*\
| =========                 |                                                 |
| \\      /  F ield         | OpenFOAM: The Open Source CFD Toolbox           |
|  \\    /   O peration     | Version:  2412                                  |
|   \\  /    A nd           | Website:  www.openfoam.com                      |
|    \\/     M anipulation  |                                                 |
\*---------------------------------------------------------------------------*/
FoamFile
{
    version     2.0;
    format      ascii;
    arch        "LSB;label=32;scalar=64";
    class       volVectorField;
    location    "1500";
    object      U;
}
// * * * * * * * * * * * * * * * * * * * * * * * * * * * * * * * * * * * * * //

dimensions      [0 1 -1 0 0 0 0];

internalField   nonuniform List<vector> 
6320
(
(4.99989 0.00480842 0)
(4.99938 0.0145383 0)
(4.99825 0.0249213 0)
(4.99663 0.0364815 0)
(4.99479 0.0497687 0)
(4.9931 0.0654495 0)
(4.99215 0.084237 0)
(4.99303 0.107241 0)
(4.99708 0.1345 0)
(5.00662 0.169584 0)
(4.99997 0.00499861 0)
(4.99981 0.0151015 0)
(4.99948 0.0257754 0)
(4.99914 0.0374544 0)
(4.99907 0.050571 0)
(4.99971 0.0655854 0)
(5.00163 0.082962 0)
(5.00604 0.103174 0)
(5.0138 0.126325 0)
(5.02934 0.152942 0)
(5.00002 0.00501447 0)
(5.00015 0.015122 0)
(5.00047 0.0256825 0)
(5.00114 0.0370399 0)
(5.00243 0.0495057 0)
(5.00475 0.0633716 0)
(5.00865 0.0788679 0)
(5.01508 0.0961575 0)
(5.02472 0.114991 0)
(5.03986 0.135034 0)
(5.00007 0.0048902 0)
(5.00041 0.014726 0)
(5.00123 0.024906 0)
(5.00267 0.0356861 0)
(5.00494 0.0472725 0)
(5.00842 0.0598229 0)
(5.01355 0.0734116 0)
(5.02107 0.0879946 0)
(5.03144 0.103224 0)
(5.04665 0.118551 0)
(5.00011 0.00465922 0)
(5.00059 0.0140176 0)
(5.00178 0.0236211 0)
(5.00377 0.0336452 0)
(5.0067 0.0442126 0)
(5.01089 0.0553866 0)
(5.01669 0.067142 0)
(5.02463 0.0793317 0)
(5.035 0.0915837 0)
(5.04895 0.103234 0)
(5.00013 0.00435381 0)
(5.00072 0.0130879 0)
(5.00216 0.0219837 0)
(5.00449 0.0311514 0)
(5.00783 0.0406522 0)
(5.01241 0.0504869 0)
(5.01848 0.0605743 0)
(5.02643 0.070722 0)
(5.03638 0.0805846 0)
(5.04922 0.0895473 0)
(5.00014 0.00399921 0)
(5.0008 0.0120133 0)
(5.00239 0.0201236 0)
(5.00493 0.0283905 0)
(5.00848 0.0368317 0)
(5.0132 0.0454098 0)
(5.01928 0.0540166 0)
(5.02697 0.0624516 0)
(5.03631 0.070413 0)
(5.04782 0.0773502 0)
(5.00015 0.00361543 0)
(5.00084 0.0108539 0)
(5.00251 0.0181405 0)
(5.00514 0.0254998 0)
(5.00877 0.0329209 0)
(5.01348 0.0403458 0)
(5.01941 0.0476585 0)
(5.02671 0.0546694 0)
(5.03535 0.0611267 0)
(5.0457 0.0665665 0)
(5.00015 0.00321719 0)
(5.00086 0.00965382 0)
(5.00255 0.016106 0)
(5.00521 0.0225748 0)
(5.00881 0.0290325 0)
(5.01342 0.0354124 0)
(5.01911 0.041602 0)
(5.02596 0.0474323 0)
(5.03391 0.0526983 0)
(5.04314 0.0570165 0)
(5.00015 0.00281457 0)
(5.00086 0.00844246 0)
(5.00255 0.0140671 0)
(5.00518 0.0196763 0)
(5.00872 0.025234 0)
(5.01317 0.0306726 0)
(5.01858 0.0358892 0)
(5.02497 0.0407378 0)
(5.03227 0.0450541 0)
(5.0406 0.0485221 0)
(5.00015 0.0024133 0)
(5.00085 0.00723689 0)
(5.00252 0.0120506 0)
(5.00511 0.0168365 0)
(5.00855 0.0215561 0)
(5.01283 0.0261466 0)
(5.01796 0.030519 0)
(5.02393 0.0345523 0)
(5.03065 0.0381182 0)
(5.03812 0.0409724 0)
(5.00015 0.00201512 0)
(5.00085 0.00604313 0)
(5.0025 0.010067 0)
(5.00504 0.0140688 0)
(5.00838 0.0180081 0)
(5.0125 0.021826 0)
(5.01738 0.0254455 0)
(5.02299 0.0287682 0)
(5.02923 0.0316926 0)
(5.03616 0.0340118 0)
(5.00015 0.00161852 0)
(5.00084 0.00485625 0)
(5.00249 0.00810694 0)
(5.00499 0.011361 0)
(5.00825 0.0145856 0)
(5.01223 0.0177315 0)
(5.01689 0.0207357 0)
(5.02218 0.0235195 0)
(5.02802 0.0260082 0)
(5.03422 0.028069 0)
(5.00015 0.00121764 0)
(5.00086 0.00367134 0)
(5.00252 0.00616224 0)
(5.00504 0.00866074 0)
(5.00827 0.0111354 0)
(5.01218 0.0135502 0)
(5.01671 0.0158582 0)
(5.02183 0.0180033 0)
(5.02742 0.01993 0)
(5.03357 0.0215231 0)
(5.00017 0.000786809 0)
(5.00092 0.00245603 0)
(5.0026 0.0043008 0)
(5.00509 0.00625083 0)
(5.00826 0.0082539 0)
(5.01207 0.0102702 0)
(5.01648 0.0122577 0)
(5.0214 0.0141719 0)
(5.02676 0.0159825 0)
(5.03219 0.0176608 0)
(5.00024 0.000279342 0)
(5.00122 0.000916248 0)
(5.00313 0.00170386 0)
(5.00579 0.00259886 0)
(5.00908 0.00361364 0)
(5.01297 0.00469448 0)
(5.01741 0.00580565 0)
(5.02236 0.00692019 0)
(5.02772 0.00803499 0)
(5.03366 0.00924287 0)
(5.01647 0.189596 -1.32122e-20)
(5.02473 0.198255 0)
(5.03443 0.20715 -1.0191e-20)
(5.04497 0.216008 1.30943e-20)
(5.0568 0.224537 0)
(5.07025 0.232524 0)
(5.08534 0.239763 0)
(5.10197 0.246024 1.22291e-21)
(5.12006 0.251092 -1.44983e-21)
(5.13946 0.25466 2.82475e-21)
(5.15997 0.256482 1.48534e-22)
(5.18133 0.256344 5.47066e-23)
(5.2032 0.254069 -2.01511e-22)
(5.22522 0.249529 4.48706e-21)
(5.24698 0.242648 -6.17177e-21)
(5.26808 0.233416 3.40409e-21)
(5.28811 0.221849 -9.96961e-18)
(5.30673 0.208074 9.92967e-18)
(5.32361 0.191904 4.00084e-21)
(5.33853 0.174088 -1.05803e-20)
(5.35121 0.157313 0)
(5.36145 0.138022 8.64645e-21)
(5.36924 0.117621 0)
(5.37463 0.0966627 -1.87719e-20)
(5.37767 0.075498 -1.70792e-20)
(5.37845 0.0544261 4.15331e-20)
(5.37712 0.0337166 0)
(5.37384 0.0136071 1.87733e-20)
(5.36884 -0.0056971 -6.13267e-22)
(5.36234 -0.0240369 -4.38448e-20)
(5.35458 -0.041267 4.17034e-20)
(5.34577 -0.0574315 -3.22309e-20)
(5.33624 -0.0720654 0)
(5.32615 -0.0872431 -3.01306e-20)
(5.0433 0.170495 2.20144e-20)
(5.05235 0.178464 0)
(5.06179 0.186154 9.84591e-21)
(5.07148 0.193468 2.60716e-23)
(5.08197 0.200323 7.11439e-23)
(5.09343 0.206583 0)
(5.10576 0.212092 -2.74866e-22)
(5.11882 0.216664 0)
(5.13255 0.220124 3.72029e-21)
(5.14686 0.222315 -6.12383e-21)
(5.16164 0.223101 -4.13124e-21)
(5.17671 0.222365 -2.63899e-21)
(5.19191 0.220023 -3.40853e-21)
(5.20704 0.216029 -4.22143e-21)
(5.2219 0.210376 -1.38954e-22)
(5.23627 0.203102 0)
(5.24996 0.194284 6.21115e-18)
(5.26275 0.184039 -6.19085e-18)
(5.27446 0.172522 -3.7779e-21)
(5.28492 0.159886 0)
(5.29415 0.146283 0)
(5.30217 0.131975 -8.75792e-21)
(5.30876 0.117193 0)
(5.31383 0.102144 1.83687e-20)
(5.3174 0.0870213 1.80487e-20)
(5.31952 0.072011 -1.81081e-20)
(5.32022 0.0572837 -5.21945e-22)
(5.31955 0.0429892 -3.2722e-20)
(5.31759 0.02926 0)
(5.31442 0.0161825 2.9095e-20)
(5.3101 0.00391605 -4.87807e-22)
(5.30473 -0.00781508 3.37589e-20)
(5.29835 -0.0189904 -2.36211e-22)
(5.29106 -0.0296811 5.63964e-20)
(5.05195 0.147114 -8.85882e-21)
(5.05913 0.15191 0)
(5.06669 0.156199 -6.69595e-23)
(5.07453 0.160059 -2.51632e-21)
(5.08296 0.163462 0)
(5.09204 0.166322 0)
(5.1017 0.168553 2.74765e-22)
(5.11185 0.170079 0)
(5.12245 0.170838 -2.31343e-21)
(5.13343 0.170771 3.34486e-21)
(5.14469 0.16982 4.45679e-21)
(5.15613 0.167936 4.91956e-21)
(5.16763 0.165085 5.98908e-21)
(5.17905 0.16125 0)
(5.19026 0.156431 -1.64539e-21)
(5.20112 0.150644 -1.23544e-22)
(5.21151 0.143941 1.5896e-17)
(5.22129 0.136327 -1.5856e-17)
(5.23035 0.127773 -1.0499e-21)
(5.2386 0.117993 -1.69734e-22)
(5.24596 0.108241 5.38841e-21)
(5.25236 0.0987798 5.59266e-21)
(5.25774 0.088321 5.76602e-21)
(5.26207 0.0774367 -4.06307e-22)
(5.26534 0.0663511 4.05596e-22)
(5.26758 0.0551994 0)
(5.26881 0.0440961 0)
(5.26908 0.033148 2.81464e-21)
(5.26845 0.0224553 0)
(5.26699 0.0121073 -2.93692e-20)
(5.26477 0.0021953 2.33926e-20)
(5.26191 -0.00722947 2.37548e-20)
(5.25838 -0.0160666 2.30287e-20)
(5.2544 -0.0245086 -2.64508e-20)
(5.05841 0.127712 -3.41484e-23)
(5.06503 0.131371 -3.0959e-21)
(5.07186 0.134675 0)
(5.07884 0.137657 2.56612e-21)
(5.08619 0.140285 1.42666e-23)
(5.09393 0.142499 0)
(5.10199 0.144241 -1.18061e-21)
(5.1103 0.145457 0)
(5.11882 0.1461 2.41164e-21)
(5.12749 0.146116 -3.03866e-21)
(5.13624 0.145461 1.83281e-21)
(5.14502 0.144105 -2.21399e-21)
(5.15375 0.142024 -5.20526e-21)
(5.16235 0.13921 -1.77638e-22)
(5.17073 0.135664 1.88849e-21)
(5.17884 0.131401 6.63019e-22)
(5.18658 0.12645 1.55812e-17)
(5.19389 0.120851 -1.55477e-17)
(5.20069 0.114658 2.18013e-21)
(5.20688 0.107936 1.99331e-21)
(5.21237 0.100736 -4.86604e-22)
(5.21722 0.0931265 -6.27804e-21)
(5.2215 0.0851973 -5.48799e-21)
(5.2251 0.077034 -4.90456e-21)
(5.22798 0.0687192 9.65096e-21)
(5.23012 0.0603327 3.46461e-22)
(5.23156 0.051951 -1.02264e-20)
(5.23231 0.0436461 2.29485e-20)
(5.23238 0.0354842 -1.06171e-20)
(5.2318 0.0275233 9.87003e-21)
(5.23061 0.0198179 -2.36142e-20)
(5.22884 0.0123957 -3.52236e-21)
(5.22648 0.00535341 -2.28297e-20)
(5.22369 -0.00152728 -1.64549e-22)
(5.05924 0.109877 2.29504e-23)
(5.06474 0.112326 3.10798e-21)
(5.07035 0.114399 1.67295e-23)
(5.07606 0.116147 -1.09745e-22)
(5.08199 0.117561 -3.57529e-22)
(5.08818 0.118606 0)
(5.09456 0.119249 2.53922e-21)
(5.1011 0.119466 1.68627e-23)
(5.10776 0.119232 -2.47829e-21)
(5.11451 0.118528 3.04723e-21)
(5.12131 0.11734 -1.83987e-21)
(5.12812 0.115659 -1.76827e-21)
(5.13488 0.113481 2.33318e-21)
(5.14154 0.110807 8.2425e-23)
(5.14804 0.107645 -8.22745e-23)
(5.15434 0.104007 -8.37092e-22)
(5.16039 0.099915 1.27368e-17)
(5.16612 0.0953932 -1.27126e-17)
(5.1715 0.0904771 -9.70894e-22)
(5.17648 0.0851936 -2.28355e-21)
(5.18103 0.0796561 -4.38634e-21)
(5.18513 0.0736763 -4.15935e-21)
(5.18876 0.0677385 -4.02171e-21)
(5.19188 0.0615471 4.93446e-21)
(5.19448 0.0552128 -9.50878e-21)
(5.19656 0.0488038 4.15831e-24)
(5.19814 0.0423738 1.00143e-20)
(5.1992 0.0359718 -1.0344e-20)
(5.19978 0.0296447 1.87586e-20)
(5.1999 0.0234371 -9.99822e-21)
(5.19957 0.0173921 8.95073e-21)
(5.19884 0.0115435 -2.90128e-20)
(5.1977 0.00594911 1.40551e-22)
(5.19629 0.000551951 -1.403e-22)
(5.05849 0.0945713 1.78221e-21)
(5.0633 0.0963852 5.12495e-22)
(5.06817 0.0979056 0)
(5.0731 0.0991788 3.21152e-22)
(5.07819 0.1002 9.67403e-22)
(5.08345 0.100949 -3.71264e-23)
(5.08883 0.101403 -2.63027e-21)
(5.09429 0.101547 1.76159e-21)
(5.09981 0.101363 0)
(5.10536 0.100839 0)
(5.11091 0.099963 -1.5209e-21)
(5.11643 0.0987249 2.02728e-21)
(5.12187 0.0971202 1.79644e-21)
(5.12721 0.0951488 -7.40721e-23)
(5.13241 0.0928148 -6.44802e-24)
(5.13743 0.0901271 8.02821e-23)
(5.14223 0.0870989 8.38711e-18)
(5.1468 0.083748 -8.37367e-18)
(5.15109 0.0800961 7.8748e-22)
(5.15508 0.0761687 -1.54713e-21)
(5.15876 0.0719942 0)
(5.16208 0.067604 3.48704e-22)
(5.16503 0.0630269 1.06488e-21)
(5.16762 0.0582986 3.28927e-21)
(5.16984 0.0534556 -2.46211e-22)
(5.17167 0.0485347 -7.07531e-21)
(5.17313 0.0435714 7.66717e-21)
(5.1742 0.0386003 -7.98711e-21)
(5.1749 0.0336545 -8.50903e-21)
(5.17524 0.028765 0)
(5.17522 0.0239619 -8.71212e-21)
(5.17487 0.0192659 8.64078e-21)
(5.17417 0.0147236 -7.43436e-21)
(5.17322 0.0102549 1.47086e-20)
(5.05592 0.0811281 -1.26253e-21)
(5.06 0.0824217 -5.13091e-22)
(5.06411 0.0834564 5.31033e-24)
(5.06825 0.0842743 -2.33692e-22)
(5.07248 0.0848749 -6.37375e-22)
(5.07682 0.0852439 -1.05848e-21)
(5.08123 0.0853683 1.45774e-21)
(5.08567 0.085238 -3.62379e-21)
(5.09014 0.0848448 0)
(5.09462 0.0841818 0)
(5.09908 0.0832444 1.52437e-21)
(5.1035 0.0820309 0)
(5.10786 0.0805427 -1.92406e-21)
(5.11214 0.078783 -6.39071e-23)
(5.1163 0.0767579 1.32825e-22)
(5.12034 0.0744759 -1.05848e-22)
(5.12421 0.0719484 -4.75609e-18)
(5.12791 0.0691891 4.74933e-18)
(5.13141 0.0662143 -8.70605e-22)
(5.13469 0.0630423 3.07258e-21)
(5.13773 0.0596938 1.30306e-21)
(5.14052 0.0561897 6.23783e-21)
(5.14305 0.0525563 3.45523e-21)
(5.14531 0.0488168 -3.74895e-21)
(5.1473 0.0449937 3.31994e-21)
(5.149 0.0411111 7.36078e-21)
(5.15041 0.0371938 -1.23749e-21)
(5.15155 0.0332661 7.73717e-21)
(5.1524 0.0293518 -6.55122e-21)
(5.15299 0.0254735 -2.18416e-22)
(5.15332 0.0216533 7.0251e-21)
(5.1534 0.0179099 -2.17823e-22)
(5.15323 0.0142707 7.47345e-21)
(5.15288 0.010718 -8.2795e-21)
(5.05288 0.0694853 -7.64328e-22)
(5.05643 0.0704622 0)
(5.05999 0.0712309 0)
(5.06357 0.0718278 5.59575e-22)
(5.06722 0.0722548 -8.36647e-22)
(5.07094 0.0725035 1.04685e-21)
(5.07469 0.0725661 -1.43505e-21)
(5.07847 0.0724367 2.66672e-21)
(5.08225 0.0721106 -9.9852e-22)
(5.08603 0.0715838 -7.892e-23)
(5.08978 0.0708537 1.67463e-22)
(5.09349 0.0699188 -8.85075e-23)
(5.09714 0.0687793 0)
(5.10071 0.0674371 -9.01242e-22)
(5.10418 0.0658963 -8.49003e-22)
(5.10754 0.0641623 0)
(5.11077 0.0622428 -1.27679e-17)
(5.11385 0.060147 1.27522e-17)
(5.11678 0.0578856 -4.04321e-23)
(5.11952 0.055471 -1.34861e-21)
(5.12208 0.052917 -1.31868e-21)
(5.12445 0.0502384 -2.72382e-21)
(5.1266 0.0474509 5.0436e-24)
(5.12854 0.0445709 4.48221e-24)
(5.13027 0.0416153 -3.30967e-21)
(5.13177 0.0386015 2.79448e-21)
(5.13305 0.035547 -3.81478e-21)
(5.1341 0.0324692 3.82476e-22)
(5.13494 0.0293849 5.94227e-22)
(5.13555 0.0263104 5.63609e-21)
(5.13595 0.0232616 -6.425e-21)
(5.13614 0.0202511 0)
(5.13612 0.0173006 0)
(5.13593 0.0143857 -1.23554e-20)
(5.04946 0.0593039 2.15462e-22)
(5.05252 0.0600518 0)
(5.05559 0.0606271 -4.36114e-22)
(5.05866 0.0610603 -1.2856e-21)
(5.06178 0.0613533 8.59046e-22)
(5.06493 0.0615006 1.17102e-21)
(5.06811 0.0614968 7.19892e-22)
(5.07128 0.0613381 -1.68685e-21)
(5.07446 0.0610214 4.8503e-23)
(5.07761 0.0605445 0)
(5.08074 0.0599061 0)
(5.08382 0.0591062 0)
(5.08685 0.0581462 -7.12143e-22)
(5.08981 0.0570285 7.93739e-22)
(5.0927 0.0557568 9.60862e-22)
(5.09549 0.0543363 -4.65938e-22)
(5.09818 0.052773 -3.75448e-18)
(5.10075 0.0510743 3.75061e-18)
(5.1032 0.0492488 -1.00348e-22)
(5.10552 0.0473058 -2.80059e-24)
(5.10769 0.0452559 7.05272e-23)
(5.10971 0.04311 1.13232e-21)
(5.11157 0.0408799 0)
(5.11327 0.0385781 -2.39037e-21)
(5.11481 0.036217 0)
(5.11617 0.0338094 -2.80576e-21)
(5.11737 0.0313682 -4.86219e-22)
(5.11839 0.0289062 2.7299e-21)
(5.11924 0.026436 6.4017e-22)
(5.11992 0.0239697 -6.02684e-21)
(5.12044 0.0215196 -9.15678e-25)
(5.12081 0.0190962 5.43249e-21)
(5.12101 0.0167134 0)
(5.12109 0.0143679 5.84505e-21)
(5.04625 0.0503409 -1.1426e-22)
(5.04896 0.0509251 0)
(5.05166 0.0513687 4.5275e-22)
(5.05437 0.0516975 7.15732e-22)
(5.0571 0.0519143 -2.66593e-23)
(5.05986 0.0520156 -1.17271e-21)
(5.06262 0.0519983 7.56629e-22)
(5.06538 0.0518604 1.59106e-21)
(5.06813 0.0516003 9.52981e-22)
(5.07086 0.0512169 -1.08707e-21)
(5.07356 0.05071 1.4499e-22)
(5.07622 0.0500798 4.52908e-22)
(5.07883 0.0493277 1.35258e-22)
(5.08138 0.0484558 -4.77886e-23)
(5.08386 0.047467 4.77533e-23)
(5.08626 0.046365 2.64545e-22)
(5.08857 0.0451542 3.43309e-18)
(5.09079 0.0438399 -3.4299e-18)
(5.0929 0.0424281 -2.62836e-22)
(5.09491 0.0409255 -2.43994e-24)
(5.09679 0.0393394 6.41454e-23)
(5.09855 0.0376776 -1.13564e-21)
(5.10018 0.0359486 1.40636e-22)
(5.10167 0.0341608 2.40139e-21)
(5.10303 0.0323234 -1.43788e-22)
(5.10425 0.0304454 2.25272e-21)
(5.10532 0.028536 -2.48539e-22)
(5.10626 0.0266044 -2.50376e-22)
(5.10705 0.0246596 5.19703e-21)
(5.1077 0.0227103 -2.21205e-21)
(5.10821 0.020765 -4.92299e-21)
(5.10858 0.0188314 -1.00673e-20)
(5.10881 0.0169192 0)
(5.10893 0.0150251 0)
(5.04313 0.042492 1.3648e-22)
(5.0455 0.0429964 4.86066e-24)
(5.04788 0.0433902 2.19135e-23)
(5.05025 0.0436921 -2.19414e-23)
(5.05264 0.0439042 -4.81083e-22)
(5.05504 0.044024 -3.41904e-23)
(5.05744 0.0440491 0)
(5.05983 0.0439776 -1.55221e-21)
(5.06221 0.0438085 -9.40839e-22)
(5.06456 0.0435407 1.01948e-21)
(5.06689 0.0431741 0)
(5.06917 0.0427089 -1.2682e-21)
(5.07141 0.0421459 1.36042e-21)
(5.0736 0.0414864 -4.37947e-23)
(5.07574 0.0407327 9.02069e-23)
(5.0778 0.0398876 3.15252e-22)
(5.07979 0.0389546 6.23698e-18)
(5.08171 0.0379377 -6.23193e-18)
(5.08353 0.0368416 1.48359e-22)
(5.08527 0.0356715 5.58982e-23)
(5.08692 0.0344328 0)
(5.08846 0.0331317 -9.41257e-22)
(5.0899 0.0317744 8.40492e-22)
(5.09123 0.0303676 1.26686e-22)
(5.09245 0.0289181 1.32566e-22)
(5.09356 0.0274329 -4.32172e-21)
(5.09456 0.025919 -2.43175e-21)
(5.09544 0.0243832 -2.18993e-21)
(5.09622 0.0228332 -2.79041e-22)
(5.09687 0.0212765 4.5495e-21)
(5.09742 0.0197194 5.06704e-21)
(5.09786 0.0181677 4.66152e-21)
(5.09819 0.0166287 7.1705e-23)
(5.09843 0.0151034 -7.15735e-23)
(5.0408 0.0352242 1.97486e-22)
(5.04297 0.0356132 0)
(5.04512 0.0359123 0)
(5.04727 0.0361395 0)
(5.04942 0.0362965 -1.77273e-23)
(5.05157 0.0363813 0)
(5.05372 0.0363926 4.71649e-23)
(5.05585 0.0363294 7.49469e-22)
(5.05797 0.036191 8.89196e-22)
(5.06005 0.0359769 0)
(5.06211 0.0356872 6.86449e-23)
(5.06413 0.0353222 1.06509e-21)
(5.06611 0.0348832 -6.22832e-22)
(5.06804 0.0343717 3.14534e-22)
(5.06992 0.0337893 0)
(5.07173 0.0331383 -1.86096e-22)
(5.07349 0.0324212 2.94361e-18)
(5.07517 0.0316411 -2.94165e-18)
(5.07678 0.0308013 -2.72648e-23)
(5.07831 0.0299056 -1.88476e-24)
(5.07976 0.0289581 -3.7134e-22)
(5.08112 0.0279632 1.05868e-21)
(5.08239 0.0269256 -9.66389e-22)
(5.08358 0.0258503 -1.04046e-21)
(5.08466 0.0247426 0)
(5.08566 0.023608 1.10967e-21)
(5.08655 0.0224513 -1.27678e-22)
(5.08735 0.0212772 1.27504e-22)
(5.08805 0.0200906 -2.00513e-21)
(5.08866 0.0188956 -2.04908e-21)
(5.08916 0.017697 -1.3169e-22)
(5.08956 0.0164985 0)
(5.08987 0.0153037 0)
(5.09009 0.014117 -2.06783e-21)
(5.03832 0.0292319 -2.05784e-22)
(5.04025 0.0296591 8.00176e-24)
(5.04219 0.0300182 -4.37422e-22)
(5.04413 0.0303172 2.5957e-23)
(5.04607 0.0305579 5.34364e-22)
(5.048 0.030739 -3.19851e-22)
(5.04993 0.0308592 0)
(5.05184 0.0309173 -3.95172e-22)
(5.05373 0.0309125 -4.32226e-22)
(5.0556 0.0308444 -6.02632e-23)
(5.05744 0.0307131 6.02973e-23)
(5.05924 0.0305184 -6.2392e-22)
(5.06101 0.0302606 6.95201e-23)
(5.06273 0.0299406 -6.57498e-22)
(5.06441 0.0295596 2.40139e-22)
(5.06603 0.0291194 4.25355e-23)
(5.0676 0.0286219 -6.91228e-19)
(5.06911 0.0280694 6.90827e-19)
(5.07055 0.0274645 4.88078e-23)
(5.07193 0.0268103 -2.4416e-22)
(5.07324 0.0261097 8.29442e-22)
(5.07448 0.0253664 0)
(5.07565 0.0245839 -4.25131e-22)
(5.07674 0.0237663 1.03648e-21)
(5.07775 0.0229177 -1.12191e-22)
(5.07869 0.0220428 9.62403e-22)
(5.07954 0.0211456 -1.18605e-22)
(5.08031 0.0201989 1.17198e-21)
(5.08099 0.0192531 2.83492e-21)
(5.08159 0.018349 9.54562e-22)
(5.0821 0.0174115 1.238e-22)
(5.08253 0.0164649 -1.23606e-22)
(5.08288 0.0155194 6.25221e-23)
(5.08315 0.0145765 2.01131e-21)
(5.03767 0.0223771 1.37908e-22)
(5.03952 0.022674 1.05299e-23)
(5.04131 0.0229287 3.81693e-22)
(5.04308 0.0231491 6.5082e-23)
(5.04486 0.0233325 2.97458e-22)
(5.04662 0.0234763 2.80764e-22)
(5.04837 0.0235792 -3.15132e-22)
(5.0501 0.0236398 3.47107e-22)
(5.05181 0.0236573 4.32566e-22)
(5.05349 0.0236309 6.14279e-23)
(5.05513 0.0235606 -6.14489e-23)
(5.05675 0.0234465 0)
(5.05832 0.0232872 0)
(5.05986 0.0230839 2.64884e-22)
(5.06135 0.0228375 -1.61746e-22)
(5.06279 0.022549 -4.32119e-23)
(5.06418 0.0222197 2.67662e-18)
(5.06551 0.0218511 -2.67536e-18)
(5.06679 0.0214447 0)
(5.06801 0.0210023 1.46788e-22)
(5.06917 0.0205255 -3.54714e-22)
(5.07026 0.0200158 1.03101e-22)
(5.07129 0.0194754 -8.55012e-23)
(5.07225 0.0189019 0)
(5.07315 0.0183184 0)
(5.07397 0.0177305 0)
(5.07473 0.0171327 -1.13426e-22)
(5.07541 0.0165159 -1.7153e-21)
(5.07602 0.0159077 -9.46803e-22)
(5.07655 0.0152706 -8.39415e-22)
(5.07701 0.0146618 -1.03855e-21)
(5.0774 0.0140095 0)
(5.07771 0.0133462 5.96489e-23)
(5.07796 0.0126849 -9.95685e-22)
(5.03573 0.0186983 -1.58983e-22)
(5.03745 0.0191262 1.03485e-23)
(5.0392 0.0195095 0)
(5.04092 0.0198507 0)
(5.04262 0.0201529 -4.10856e-22)
(5.0443 0.0204162 -3.83576e-23)
(5.04596 0.0206387 3.63843e-22)
(5.0476 0.0208192 1.02212e-22)
(5.04922 0.0209586 -5.4901e-23)
(5.05081 0.0210563 6.25882e-23)
(5.05236 0.0211111 0)
(5.05389 0.0211232 1.32675e-22)
(5.05538 0.0210929 0)
(5.05683 0.0210208 3.72093e-23)
(5.05824 0.0209079 3.95837e-23)
(5.0596 0.020755 -4.00237e-23)
(5.06092 0.0205633 5.13829e-18)
(5.06218 0.0203341 -5.13638e-18)
(5.0634 0.0200688 4.45287e-23)
(5.06456 0.0197689 -9.17841e-23)
(5.06566 0.0194361 0)
(5.0667 0.019072 0)
(5.06768 0.0186782 4.0885e-22)
(5.0686 0.0182557 0)
(5.06945 0.017807 -1.00928e-22)
(5.07024 0.0173477 1.04571e-22)
(5.07096 0.016882 -3.21649e-22)
(5.07161 0.0164058 1.11375e-21)
(5.0722 0.0159202 -2.21434e-22)
(5.07273 0.015429 5.52471e-22)
(5.07319 0.0149331 9.23341e-22)
(5.07359 0.0144424 4.48152e-22)
(5.07392 0.013954 5.73822e-23)
(5.07418 0.0134425 8.80939e-22)
(5.03756 0.00997325 0)
(5.03919 0.0104421 0)
(5.04072 0.010858 -3.58861e-23)
(5.04223 0.0112355 7.56932e-23)
(5.04376 0.011585 1.59729e-22)
(5.04526 0.0119082 -4.37114e-23)
(5.04675 0.0122041 0)
(5.04821 0.0124719 -1.02177e-22)
(5.04965 0.0127119 1.10018e-22)
(5.05106 0.0129243 -5.54217e-23)
(5.05244 0.0131094 -6.23191e-23)
(5.05379 0.0132672 -1.3265e-22)
(5.0551 0.013398 0)
(5.05638 0.0135021 -3.78973e-23)
(5.05762 0.0135798 5.5361e-25)
(5.05882 0.0136317 5.81462e-25)
(5.05997 0.0136584 1.92852e-18)
(5.06108 0.0136605 -1.92804e-18)
(5.06214 0.0136392 5.36544e-25)
(5.06316 0.0135957 4.39744e-25)
(5.06412 0.0135309 4.63133e-23)
(5.06503 0.0134459 9.72219e-23)
(5.06588 0.0133419 -9.71587e-23)
(5.06668 0.0132206 -1.01178e-22)
(5.06743 0.0130835 4.10472e-22)
(5.06812 0.0129321 -3.1285e-22)
(5.06875 0.0127679 1.07281e-22)
(5.06933 0.0125928 1.0586e-22)
(5.06987 0.0124082 -1.0839e-22)
(5.07035 0.0122138 -2.24319e-22)
(5.07077 0.0120101 -1.09214e-22)
(5.07115 0.0118045 -4.48976e-22)
(5.07148 0.011583 0)
(5.07176 0.0114144 0)
(5.30253 -0.103802 0)
(5.26622 -0.112345 0)
(5.23268 -0.113306 0)
(5.20457 -0.10818 0)
(5.18252 -0.0997526 0)
(5.16563 -0.0908269 0)
(5.15292 -0.0812139 0)
(5.14353 -0.0719886 0)
(5.1367 -0.0635506 0)
(5.13174 -0.056028 0)
(5.12814 -0.0494103 0)
(5.12555 -0.0436676 0)
(5.1237 -0.0386973 0)
(5.12236 -0.0343845 0)
(5.12139 -0.0306916 0)
(5.12069 -0.027554 0)
(5.12019 -0.0248874 0)
(5.11984 -0.0226177 0)
(5.11959 -0.0206925 0)
(5.11941 -0.0190727 0)
(5.11928 -0.0177256 0)
(5.11921 -0.0166258 0)
(5.11916 -0.015752 0)
(5.11915 -0.0150865 0)
(5.11916 -0.0146491 0)
(5.11918 -0.0143088 0)
(5.27269 -0.044564 0)
(5.24337 -0.0596014 0)
(5.21593 -0.0687474 0)
(5.19271 -0.0712671 0)
(5.17387 -0.0691335 0)
(5.15874 -0.0651314 0)
(5.14664 -0.0603099 0)
(5.13722 -0.054613 0)
(5.13007 -0.0488989 0)
(5.12468 -0.0434957 0)
(5.12057 -0.0385069 0)
(5.11754 -0.0339839 0)
(5.11493 -0.0299559 0)
(5.11329 -0.0264067 0)
(5.11197 -0.0233012 0)
(5.11092 -0.0206122 0)
(5.11011 -0.0182982 0)
(5.10947 -0.016316 0)
(5.10897 -0.0146313 0)
(5.10856 -0.0132162 0)
(5.10823 -0.0120476 0)
(5.10796 -0.0111051 0)
(5.10774 -0.0103753 0)
(5.10755 -0.00984054 0)
(5.10742 -0.00951991 0)
(5.10726 -0.00931199 0)
(5.24304 -0.0393749 0)
(5.22309 -0.0547187 0)
(5.20307 -0.0655807 0)
(5.18484 -0.0681908 0)
(5.16928 -0.0674149 0)
(5.15636 -0.0648316 0)
(5.14558 -0.0612531 0)
(5.13664 -0.0570885 0)
(5.12944 -0.0523332 0)
(5.12376 -0.0476209 0)
(5.11931 -0.0431572 0)
(5.1158 -0.0390017 0)
(5.11303 -0.0352269 0)
(5.11073 -0.0318735 0)
(5.10897 -0.0288839 0)
(5.10752 -0.0262296 0)
(5.10635 -0.0239023 0)
(5.10539 -0.0218844 0)
(5.10459 -0.0201494 0)
(5.10391 -0.0186723 0)
(5.10333 -0.0174332 0)
(5.10283 -0.0164138 0)
(5.1024 -0.0156072 0)
(5.10199 -0.0149889 0)
(5.1017 -0.0146087 0)
(5.10117 -0.0142863 0)
(5.21577 -0.0134772 0)
(5.20191 -0.0271405 0)
(5.18683 -0.0358939 0)
(5.1719 -0.0413717 0)
(5.15859 -0.0435455 0)
(5.14726 -0.043197 0)
(5.13758 -0.0416987 0)
(5.12927 -0.039431 0)
(5.12224 -0.0367113 0)
(5.11647 -0.0338325 0)
(5.11181 -0.0307736 0)
(5.10802 -0.0278077 0)
(5.10493 -0.0250279 0)
(5.1024 -0.0224729 0)
(5.10031 -0.0201487 0)
(5.09857 -0.0180526 0)
(5.09712 -0.016194 0)
(5.0959 -0.0145716 0)
(5.09487 -0.0131726 0)
(5.09397 -0.0119826 0)
(5.09319 -0.0109904 0)
(5.09249 -0.0101845 0)
(5.09188 -0.00955599 0)
(5.09127 -0.00912023 0)
(5.09084 -0.00878536 0)
(5.09002 -0.00869737 0)
(5.19147 -0.00968072 0)
(5.18174 -0.0223527 0)
(5.17041 -0.0314988 0)
(5.15883 -0.0380092 0)
(5.148 -0.0411455 0)
(5.13835 -0.0421441 0)
(5.12992 -0.0416266 0)
(5.12259 -0.0403812 0)
(5.11625 -0.0385911 0)
(5.11083 -0.0364954 0)
(5.10625 -0.034023 0)
(5.10241 -0.0315068 0)
(5.09921 -0.0290663 0)
(5.09654 -0.0267579 0)
(5.09429 -0.024614 0)
(5.09237 -0.0226494 0)
(5.09073 -0.0208749 0)
(5.08933 -0.0192951 0)
(5.08811 -0.017908 0)
(5.08703 -0.0167082 0)
(5.08609 -0.0156909 0)
(5.08523 -0.0148492 0)
(5.08445 -0.0141811 0)
(5.08368 -0.0136669 0)
(5.0831 -0.0133494 0)
(5.08217 -0.0130792 0)
(5.16987 0.00182865 0)
(5.16304 -0.00895897 0)
(5.15475 -0.0171303 0)
(5.14587 -0.0226848 0)
(5.13709 -0.0263628 0)
(5.12887 -0.0281171 0)
(5.12144 -0.0285896 0)
(5.11487 -0.0280848 0)
(5.10909 -0.0269868 0)
(5.104 -0.0255591 0)
(5.09952 -0.0239354 0)
(5.09566 -0.0221614 0)
(5.09236 -0.0204179 0)
(5.08955 -0.018652 0)
(5.08713 -0.01697 0)
(5.08503 -0.0154119 0)
(5.08321 -0.0139911 0)
(5.08162 -0.0127159 0)
(5.08022 -0.0115915 0)
(5.07897 -0.010618 0)
(5.07784 -0.00980117 0)
(5.07681 -0.00909763 0)
(5.07587 -0.00855088 0)
(5.07492 -0.00815495 0)
(5.07425 -0.0079411 0)
(5.07288 -0.00786964 0)
(5.15096 0.00367217 0)
(5.14631 -0.00568309 0)
(5.14013 -0.0131398 0)
(5.1332 -0.0187304 0)
(5.12613 -0.0225928 0)
(5.11928 -0.0249732 0)
(5.11288 -0.0262323 0)
(5.10704 -0.0266064 0)
(5.10178 -0.0262197 0)
(5.09709 -0.0254299 0)
(5.09294 -0.0244051 0)
(5.08929 -0.0232116 0)
(5.08606 -0.021893 0)
(5.08322 -0.0204844 0)
(5.08073 -0.0191042 0)
(5.07855 -0.0177945 0)
(5.07664 -0.0165757 0)
(5.07494 -0.0154614 0)
(5.07343 -0.0144626 0)
(5.07207 -0.0135865 0)
(5.07082 -0.0128362 0)
(5.06966 -0.0122107 0)
(5.06861 -0.0117101 0)
(5.06755 -0.011329 0)
(5.06678 -0.0110793 0)
(5.06546 -0.0109034 0)
(5.13465 0.00860401 0)
(5.13145 0.000762398 0)
(5.12691 -0.0056915 0)
(5.12155 -0.0106791 0)
(5.1159 -0.014304 0)
(5.11026 -0.0167217 0)
(5.10481 -0.0181418 0)
(5.09968 -0.0187812 0)
(5.09493 -0.0188343 0)
(5.09062 -0.0184454 0)
(5.08673 -0.0177145 0)
(5.08324 -0.0167158 0)
(5.08009 -0.0156789 0)
(5.07725 -0.0146213 0)
(5.07472 -0.0135507 0)
(5.07247 -0.0124968 0)
(5.07047 -0.0114934 0)
(5.06866 -0.0105542 0)
(5.06703 -0.00969802 0)
(5.06554 -0.0089342 0)
(5.06418 -0.00828128 0)
(5.0629 -0.00773405 0)
(5.06173 -0.00730256 0)
(5.06053 -0.00698234 0)
(5.05966 -0.00680171 0)
(5.05791 -0.00672813 0)
(5.1205 0.00958783 0)
(5.11839 0.0029615 0)
(5.11504 -0.00266404 0)
(5.11088 -0.00718628 0)
(5.10633 -0.0106488 0)
(5.10163 -0.0131517 0)
(5.09698 -0.0148318 0)
(5.09247 -0.0158334 0)
(5.08822 -0.0162873 0)
(5.08426 -0.0163239 0)
(5.0806 -0.0160676 0)
(5.07726 -0.0155818 0)
(5.07423 -0.0148999 0)
(5.07149 -0.0141712 0)
(5.069 -0.0134206 0)
(5.06675 -0.0126644 0)
(5.06472 -0.0119283 0)
(5.06287 -0.0112193 0)
(5.06117 -0.0105613 0)
(5.0596 -0.00997004 0)
(5.05814 -0.00945913 0)
(5.05678 -0.00902292 0)
(5.05552 -0.00867136 0)
(5.05424 -0.00841245 0)
(5.0533 -0.00826033 0)
(5.05164 -0.00819386 0)
(5.1086 0.011137 0)
(5.10721 0.00566576 0)
(5.10476 0.000923101 0)
(5.10152 -0.00298928 0)
(5.09784 -0.00607765 0)
(5.09394 -0.00840058 0)
(5.08997 -0.0100426 0)
(5.08603 -0.0111024 0)
(5.08223 -0.0116823 0)
(5.07862 -0.0118821 0)
(5.07523 -0.0117885 0)
(5.07207 -0.0114703 0)
(5.06917 -0.0109969 0)
(5.0665 -0.0104237 0)
(5.06405 -0.00979339 0)
(5.06181 -0.00914358 0)
(5.05974 -0.00849836 0)
(5.05783 -0.00784561 0)
(5.05607 -0.00724086 0)
(5.05444 -0.00671004 0)
(5.05292 -0.00625415 0)
(5.05147 -0.00586108 0)
(5.05013 -0.00554097 0)
(5.04874 -0.00529569 0)
(5.04774 -0.00514599 0)
(5.04575 -0.00507546 0)
(5.09844 0.0119419 0)
(5.0976 0.00742707 0)
(5.0958 0.00342744 0)
(5.09326 3.71669e-05 0)
(5.09025 -0.00272976 0)
(5.08697 -0.00490344 0)
(5.08355 -0.00653641 0)
(5.08008 -0.00769549 0)
(5.07667 -0.00845387 0)
(5.07337 -0.00888363 0)
(5.07022 -0.00905179 0)
(5.06725 -0.00901695 0)
(5.06448 -0.00883102 0)
(5.06189 -0.00854528 0)
(5.05949 -0.00819894 0)
(5.05725 -0.0078198 0)
(5.05517 -0.00742845 0)
(5.05324 -0.0070489 0)
(5.05146 -0.00665953 0)
(5.04979 -0.00630216 0)
(5.04823 -0.00599947 0)
(5.04674 -0.00575318 0)
(5.04535 -0.00555991 0)
(5.04392 -0.00542322 0)
(5.04286 -0.00535101 0)
(5.0409 -0.00532736 0)
(5.09018 0.0116131 0)
(5.08967 0.00799276 0)
(5.08833 0.00473397 0)
(5.0863 0.00191861 0)
(5.08381 -0.000428046 0)
(5.08102 -0.00231528 0)
(5.07803 -0.00377237 0)
(5.07495 -0.00484206 0)
(5.07186 -0.00557473 0)
(5.06883 -0.00602307 0)
(5.0659 -0.00623857 0)
(5.06309 -0.00626877 0)
(5.06043 -0.00615707 0)
(5.05792 -0.00594343 0)
(5.05557 -0.00566021 0)
(5.05337 -0.00533255 0)
(5.05131 -0.00498108 0)
(5.04937 -0.00462102 0)
(5.04756 -0.00426932 0)
(5.04586 -0.00394024 0)
(5.04426 -0.00364725 0)
(5.04273 -0.00338256 0)
(5.0413 -0.00316086 0)
(5.0398 -0.00299079 0)
(5.03871 -0.00288325 0)
(5.03659 -0.00281957 0)
(5.0834 0.0126066 0)
(5.08316 0.00972588 0)
(5.08215 0.00707869 0)
(5.0805 0.0047286 0)
(5.0784 0.00270336 0)
(5.07598 0.00100587 0)
(5.07336 -0.000376672 0)
(5.0706 -0.00146759 0)
(5.06779 -0.00229658 0)
(5.065 -0.00289703 0)
(5.06226 -0.00330393 0)
(5.05962 -0.0035516 0)
(5.05708 -0.00367222 0)
(5.05466 -0.00369531 0)
(5.05237 -0.00364656 0)
(5.0502 -0.00354741 0)
(5.04816 -0.00341545 0)
(5.04623 -0.0032656 0)
(5.04441 -0.00310906 0)
(5.04269 -0.00295744 0)
(5.04106 -0.0028226 0)
(5.03949 -0.00270539 0)
(5.03802 -0.00261427 0)
(5.03648 -0.00255367 0)
(5.03535 -0.00252583 0)
(5.0332 -0.00251986 0)
(5.07821 0.0112501 0)
(5.07809 0.00912717 0)
(5.07727 0.00715403 0)
(5.07584 0.00538517 0)
(5.07399 0.00384759 0)
(5.07182 0.00254701 0)
(5.06942 0.00147575 0)
(5.06688 0.000618333 0)
(5.06427 -4.27322e-05 0)
(5.06165 -0.000527734 0)
(5.05906 -0.000860295 0)
(5.05654 -0.00106555 0)
(5.0541 -0.00116806 0)
(5.05176 -0.00119058 0)
(5.04953 -0.00115333 0)
(5.04741 -0.00107349 0)
(5.04539 -0.000965142 0)
(5.04348 -0.000840853 0)
(5.04168 -0.000708055 0)
(5.03996 -0.000574538 0)
(5.03832 -0.000451976 0)
(5.03674 -0.000344867 0)
(5.03526 -0.000256073 0)
(5.03371 -0.000187299 0)
(5.03257 -0.000143139 0)
(5.03041 -0.000116171 0)
(5.07449 0.0124072 0)
(5.07447 0.010811 0)
(5.0738 0.00923027 0)
(5.07257 0.00772974 0)
(5.07093 0.00635391 0)
(5.06897 0.00512315 0)
(5.06678 0.00404429 0)
(5.06442 0.00311692 0)
(5.06197 0.00233845 0)
(5.0595 0.00170243 0)
(5.05704 0.00119738 0)
(5.05462 0.000808269 0)
(5.05226 0.000518702 0)
(5.04997 0.000312307 0)
(5.04778 0.000173524 0)
(5.04569 8.85363e-05 0)
(5.04369 4.37671e-05 0)
(5.04178 2.99604e-05 0)
(5.03997 3.75472e-05 0)
(5.03823 5.7627e-05 0)
(5.03658 8.29157e-05 0)
(5.03498 0.000108428 0)
(5.03348 0.00012966 0)
(5.0319 0.000143237 0)
(5.03074 0.000148262 0)
(5.02851 0.000148386 0)
(5.07209 0.0110241 0)