/*--------------------------------*- C++ -*----------------------------------*\
| =========                 |                                                 |
| \\      /  F ield         | OpenFOAM: The Open Source CFD Toolbox           |
|  \\    /   O peration     | Version:  2412                                  |
|   \\  /    A nd           | Website:  www.openfoam.com                      |
|    \\/     M anipulation  |                                                 |
\*---------------------------------------------------------------------------*/
FoamFile
{
    version     2.0;
    format      ascii;
    arch        "LSB;label=32;scalar=64";
    class       volScalarField;
    location    "1500";
    object      yPlus;
}
// * * * * * * * * * * * * * * * * * * * * * * * * * * * * * * * * * * * * * //

dimensions      [0 0 0 0 0 0 0];

internalField   uniform 0;

boundaryField
{
    sides
    {
        type            empty;
    }
    inlet
    {
        type            calculated;
        value           uniform 0;
    }
    topBot
    {
        type            calculated;
        value           uniform 0;
    }
    outlet
    {
        type            calculated;
        value           uniform 0;
    }
    wall
    {
        type            calculated;
        value           nonuniform List<scalar> 
136
(
889.523
854.464
816.831
776.753
734.322
689.636
642.795
593.904
543.067
490.304
435.539
379.153
321.995
262.831
198.961
145.382
108.51
108.511
145.385
198.964
262.834
321.999
379.156
435.542
490.308
543.07
593.907
642.798
689.639
734.325
776.756
816.834
854.467
889.526
135.233
144.605
154.136
162.88
170.033
174.949
177.154
176.312
172.267
164.895
154.196
140.453
124.012
105.407
84.2841
64.5895
50.9
50.9072
64.6055
84.3034
105.422
124.025
140.464
154.203
164.899
172.267
176.308
177.147
174.94
170.021
162.867
154.122
144.591
135.221
921.9
951.523
978.456
1002.76
1024.14
1042.24
1056.78
1067.47
1074
1075.98
1073.2
1065.62
1052.89
1034.25
1008.72
975.275
932.676
880.128
815.813
738.129
644.183
530.41
403.411
265.448
106.059
110.569
144.295
158.11
153.15
133.257
122.356
118.976
121.501
127.12
921.897
951.52
978.454
1002.75
1024.14
1042.24
1056.78
1067.47
1073.99
1075.98
1073.2
1065.62
1052.89
1034.25
1008.71
975.276
932.677
880.13
815.816
738.133
644.188
530.417
403.419
265.457
106.072
110.56
144.295
158.11
153.151
133.257
122.354
118.972
121.494
127.109
)
;
    }
}


// ************************************************************************* //
