/*--------------------------------*- C++ -*----------------------------------*\
| =========                 |                                                 |
| \\      /  F ield         | OpenFOAM: The Open Source CFD Toolbox           |
|  \\    /   O peration     | Version:  2412                                  |
|   \\  /    A nd           | Website:  www.openfoam.com                      |
|    \\/     M anipulation  |                                                 |
\*---------------------------------------------------------------------------*/
FoamFile
{
    version     2.0;
    format      ascii;
    arch        "LSB;label=32;scalar=64";
    class       volScalarField;
    location    "1500";
    object      nut;
}
// * * * * * * * * * * * * * * * * * * * * * * * * * * * * * * * * * * * * * //

dimensions      [0 2 -1 0 0 0 0];

internalField   nonuniform List<scalar> 
14620
(
1.04473e-09
1.04593e-09
1.04701e-09
1.04798e-09
1.04886e-09
1.04964e-09
1.05034e-09
1.05097e-09
1.05154e-09
1.05205e-09
1.0525e-09
1.05291e-09
1.05327e-09
1.05363e-09
1.05386e-09
1.04475e-09
1.04598e-09
1.0471e-09
1.0481e-09
1.049e-09
1.04981e-09
1.05054e-09
1.05119e-09
1.05178e-09
1.0523e-09
1.05278e-09
1.0532e-09
1.05358e-09
1.05393e-09
1.05422e-09
1.04476e-09
1.04602e-09
1.04717e-09
1.04819e-09
1.04911e-09
1.04994e-09
1.05069e-09
1.05136e-09
1.05196e-09
1.0525e-09
1.05299e-09
1.05343e-09
1.05382e-09
1.05418e-09
1.05449e-09
1.04476e-09
1.04604e-09
1.04719e-09
1.04823e-09
1.04917e-09
1.05e-09
1.05076e-09
1.05144e-09
1.05205e-09
1.0526e-09
1.0531e-09
1.05355e-09
1.05395e-09
1.05431e-09
1.05463e-09
1.04477e-09
1.04604e-09
1.04719e-09
1.04823e-09
1.04916e-09
1.05e-09
1.05075e-09
1.05143e-09
1.05205e-09
1.0526e-09
1.0531e-09
1.05355e-09
1.05395e-09
1.05432e-09
1.05463e-09
1.04475e-09
1.04601e-09
1.04714e-09
1.04816e-09
1.04907e-09
1.0499e-09
1.05064e-09
1.05132e-09
1.05192e-09
1.05247e-09
1.05296e-09
1.0534e-09
1.0538e-09
1.05416e-09
1.05448e-09
1.04473e-09
1.04594e-09
1.04703e-09
1.04802e-09
1.0489e-09
1.0497e-09
1.05042e-09
1.05107e-09
1.05166e-09
1.05219e-09
1.05266e-09
1.05309e-09
1.05348e-09
1.05383e-09
1.05414e-09
1.0447e-09
1.04584e-09
1.04688e-09
1.04781e-09
1.04865e-09
1.04941e-09
1.05009e-09
1.05071e-09
1.05126e-09
1.05176e-09
1.05221e-09
1.05262e-09
1.05299e-09
1.05332e-09
1.05361e-09
1.04465e-09
1.04571e-09
1.04667e-09
1.04753e-09
1.04831e-09
1.04901e-09
1.04964e-09
1.05022e-09
1.05073e-09
1.05119e-09
1.05161e-09
1.05199e-09
1.05233e-09
1.05264e-09
1.05291e-09
1.0446e-09
1.04555e-09
1.04642e-09
1.04719e-09
1.0479e-09
1.04853e-09
1.0491e-09
1.04961e-09
1.05008e-09
1.0505e-09
1.05087e-09
1.05121e-09
1.05152e-09
1.0518e-09
1.05204e-09
1.04453e-09
1.04537e-09
1.04612e-09
1.0468e-09
1.04742e-09
1.04797e-09
1.04847e-09
1.04892e-09
1.04932e-09
1.04969e-09
1.05002e-09
1.05031e-09
1.05058e-09
1.05082e-09
1.05104e-09
1.04446e-09
1.04517e-09
1.0458e-09
1.04637e-09
1.04688e-09
1.04735e-09
1.04776e-09
1.04814e-09
1.04848e-09
1.04879e-09
1.04906e-09
1.04931e-09
1.04954e-09
1.04974e-09
1.04992e-09
1.04439e-09
1.04494e-09
1.04545e-09
1.0459e-09
1.0463e-09
1.04667e-09
1.047e-09
1.0473e-09
1.04757e-09
1.04782e-09
1.04803e-09
1.04823e-09
1.04841e-09
1.04857e-09
1.04871e-09
1.0443e-09
1.0447e-09
1.04505e-09
1.04538e-09
1.04567e-09
1.04593e-09
1.04617e-09
1.04638e-09
1.04658e-09
1.04675e-09
1.04691e-09
1.04705e-09
1.04718e-09
1.04729e-09
1.0474e-09
1.04418e-09
1.04433e-09
1.04447e-09
1.0446e-09
1.0447e-09
1.04476e-09
1.0448e-09
1.04482e-09
1.04483e-09
1.04484e-09
1.04484e-09
1.04484e-09
1.04484e-09
1.04485e-09
1.04485e-09
1.05408e-09
1.05425e-09
1.05441e-09
1.05457e-09
1.05471e-09
1.05481e-09
1.05489e-09
1.05494e-09
1.05498e-09
1.055e-09
1.05503e-09
1.05506e-09
1.05511e-09
1.05518e-09
1.05527e-09
1.0554e-09
1.05555e-09
1.05573e-09
1.05593e-09
1.05616e-09
1.05641e-09
1.05668e-09
1.05696e-09
1.05726e-09
1.05754e-09
1.05791e-09
1.05824e-09
1.05847e-09
1.05866e-09
1.05883e-09
1.059e-09
1.05916e-09
1.05932e-09
1.05949e-09
1.05965e-09
1.05982e-09
1.05999e-09
1.06016e-09
1.06033e-09
1.06051e-09
1.06069e-09
1.06089e-09
1.06108e-09
1.06129e-09
1.0615e-09
1.06174e-09
1.06191e-09
1.06228e-09
1.0624e-09
1.06296e-09
1.05447e-09
1.05468e-09
1.0549e-09
1.05511e-09
1.05532e-09
1.05553e-09
1.05574e-09
1.05596e-09
1.05617e-09
1.05638e-09
1.05659e-09
1.0568e-09
1.057e-09
1.05719e-09
1.05737e-09
1.05755e-09
1.05772e-09
1.05789e-09
1.05805e-09
1.05821e-09
1.05836e-09
1.05851e-09
1.05866e-09
1.0588e-09
1.05895e-09
1.0591e-09
1.05925e-09
1.05941e-09
1.05956e-09
1.05972e-09
1.05987e-09
1.06002e-09
1.06018e-09
1.06033e-09
1.06048e-09
1.06064e-09
1.06079e-09
1.06094e-09
1.06109e-09
1.06124e-09
1.06138e-09
1.06153e-09
1.06167e-09
1.06182e-09
1.06195e-09
1.0621e-09
1.06231e-09
1.0626e-09
1.06292e-09
1.06328e-09
1.05475e-09
1.05497e-09
1.05518e-09
1.05539e-09
1.05561e-09
1.05582e-09
1.05603e-09
1.05624e-09
1.05645e-09
1.05666e-09
1.05686e-09
1.05707e-09
1.05728e-09
1.05749e-09
1.0577e-09
1.05791e-09
1.05812e-09
1.05833e-09
1.05854e-09
1.05875e-09
1.05895e-09
1.05916e-09
1.05937e-09
1.05957e-09
1.05978e-09
1.05999e-09
1.06016e-09
1.06043e-09
1.06066e-09
1.06086e-09
1.06106e-09
1.06125e-09
1.06144e-09
1.06163e-09
1.06182e-09
1.062e-09
1.06219e-09
1.06237e-09
1.06255e-09
1.06273e-09
1.06291e-09
1.06309e-09
1.06326e-09
1.06344e-09
1.06361e-09
1.06378e-09
1.06394e-09
1.06411e-09
1.06427e-09
1.06444e-09
1.05489e-09
1.05511e-09
1.05533e-09
1.05554e-09
1.05576e-09
1.05597e-09
1.05619e-09
1.0564e-09
1.05662e-09
1.05683e-09
1.05705e-09
1.05726e-09
1.05747e-09
1.05769e-09
1.0579e-09
1.05811e-09
1.05832e-09
1.05853e-09
1.05874e-09
1.05895e-09
1.05916e-09
1.05937e-09
1.05958e-09
1.05978e-09
1.05999e-09
1.0602e-09
1.0604e-09
1.06061e-09
1.06081e-09
1.06102e-09
1.06123e-09
1.06143e-09
1.06164e-09
1.06185e-09
1.06205e-09
1.06226e-09
1.06246e-09
1.06267e-09
1.06287e-09
1.06307e-09
1.06328e-09
1.06348e-09
1.06369e-09
1.06389e-09
1.06409e-09
1.06429e-09
1.06449e-09
1.06472e-09
1.06495e-09
1.06518e-09
1.0549e-09
1.05512e-09
1.05533e-09
1.05554e-09
1.05576e-09
1.05597e-09
1.05618e-09
1.05639e-09
1.05661e-09
1.05682e-09
1.05703e-09
1.05724e-09
1.05745e-09
1.05766e-09
1.05787e-09
1.05808e-09
1.05829e-09
1.0585e-09
1.05872e-09
1.05893e-09
1.05914e-09
1.05935e-09
1.05956e-09
1.05977e-09
1.05998e-09
1.06019e-09
1.0604e-09
1.06061e-09
1.06082e-09
1.06103e-09
1.06124e-09
1.06145e-09
1.06167e-09
1.06188e-09
1.06209e-09
1.0623e-09
1.06251e-09
1.06272e-09
1.06293e-09
1.06314e-09
1.06335e-09
1.06357e-09
1.06378e-09
1.06399e-09
1.0642e-09
1.06442e-09
1.06463e-09
1.06484e-09
1.06505e-09
1.06527e-09
1.05474e-09
1.05495e-09
1.05516e-09
1.05537e-09
1.05557e-09
1.05578e-09
1.05599e-09
1.0562e-09
1.05641e-09
1.05662e-09
1.05682e-09
1.05703e-09
1.05724e-09
1.05745e-09
1.05766e-09
1.05787e-09
1.05808e-09
1.05828e-09
1.05849e-09
1.0587e-09
1.05891e-09
1.05912e-09
1.05933e-09
1.05954e-09
1.05974e-09
1.05995e-09
1.06016e-09
1.06037e-09
1.06058e-09
1.06078e-09
1.06099e-09
1.0612e-09
1.06141e-09
1.06162e-09
1.06182e-09
1.06203e-09
1.06224e-09
1.06245e-09
1.06266e-09
1.06287e-09
1.06308e-09
1.06329e-09
1.0635e-09
1.06371e-09
1.06392e-09
1.06413e-09
1.06434e-09
1.06454e-09
1.06477e-09
1.065e-09
1.05439e-09
1.05459e-09
1.05479e-09
1.05499e-09
1.05519e-09
1.05539e-09
1.05559e-09
1.05579e-09
1.05599e-09
1.05619e-09
1.05639e-09
1.05659e-09
1.05679e-09
1.05699e-09
1.05719e-09
1.0574e-09
1.0576e-09
1.0578e-09
1.058e-09
1.0582e-09
1.0584e-09
1.0586e-09
1.05881e-09
1.05901e-09
1.05921e-09
1.05941e-09
1.05962e-09
1.05982e-09
1.06003e-09
1.06023e-09
1.06044e-09
1.06064e-09
1.06085e-09
1.06105e-09
1.06126e-09
1.06146e-09
1.06167e-09
1.06188e-09
1.06209e-09
1.06229e-09
1.0625e-09
1.06271e-09
1.06292e-09
1.06313e-09
1.06334e-09
1.06355e-09
1.06377e-09
1.06398e-09
1.06419e-09
1.06441e-09
1.05385e-09
1.05404e-09
1.05423e-09
1.05442e-09
1.05461e-09
1.0548e-09
1.05498e-09
1.05517e-09
1.05536e-09
1.05555e-09
1.05574e-09
1.05593e-09
1.05612e-09
1.05631e-09
1.0565e-09
1.05669e-09
1.05688e-09
1.05707e-09
1.05727e-09
1.05746e-09
1.05765e-09
1.05784e-09
1.05803e-09
1.05823e-09
1.05842e-09
1.05861e-09
1.0588e-09
1.059e-09
1.05919e-09
1.05939e-09
1.05958e-09
1.05978e-09
1.05997e-09
1.06017e-09
1.06036e-09
1.06056e-09
1.06076e-09
1.06095e-09
1.06115e-09
1.06135e-09
1.06155e-09
1.06175e-09
1.06195e-09
1.06215e-09
1.06235e-09
1.06255e-09
1.06275e-09
1.06296e-09
1.06316e-09
1.06337e-09
1.05313e-09
1.0533e-09
1.05348e-09
1.05365e-09
1.05383e-09
1.054e-09
1.05417e-09
1.05435e-09
1.05452e-09
1.0547e-09
1.05487e-09
1.05505e-09
1.05522e-09
1.0554e-09
1.05557e-09
1.05575e-09
1.05593e-09
1.0561e-09
1.05628e-09
1.05645e-09
1.05663e-09
1.05681e-09
1.05699e-09
1.05717e-09
1.05735e-09
1.05752e-09
1.0577e-09
1.05788e-09
1.05806e-09
1.05825e-09
1.05843e-09
1.05861e-09
1.05879e-09
1.05898e-09
1.05916e-09
1.05934e-09
1.05953e-09
1.05971e-09
1.0599e-09
1.06009e-09
1.06027e-09
1.06046e-09
1.06065e-09
1.06084e-09
1.06103e-09
1.06122e-09
1.06141e-09
1.0616e-09
1.06179e-09
1.06199e-09
1.05224e-09
1.0524e-09
1.05255e-09
1.05271e-09
1.05286e-09
1.05302e-09
1.05318e-09
1.05333e-09
1.05349e-09
1.05365e-09
1.0538e-09
1.05396e-09
1.05412e-09
1.05428e-09
1.05444e-09
1.05459e-09
1.05475e-09
1.05491e-09
1.05507e-09
1.05523e-09
1.05539e-09
1.05555e-09
1.05571e-09
1.05587e-09
1.05604e-09
1.0562e-09
1.05636e-09
1.05652e-09
1.05669e-09
1.05685e-09
1.05701e-09
1.05718e-09
1.05734e-09
1.05751e-09
1.05767e-09
1.05784e-09
1.058e-09
1.05817e-09
1.05834e-09
1.05851e-09
1.05868e-09
1.05884e-09
1.05901e-09
1.05918e-09
1.05936e-09
1.05953e-09
1.0597e-09
1.05987e-09
1.06004e-09
1.06022e-09
1.05121e-09
1.05135e-09
1.05148e-09
1.05162e-09
1.05176e-09
1.0519e-09
1.05203e-09
1.05217e-09
1.05231e-09
1.05244e-09
1.05258e-09
1.05272e-09
1.05286e-09
1.05299e-09
1.05313e-09
1.05327e-09
1.05341e-09
1.05355e-09
1.05369e-09
1.05383e-09
1.05397e-09
1.05411e-09
1.05425e-09
1.05439e-09
1.05453e-09
1.05467e-09
1.05481e-09
1.05495e-09
1.0551e-09
1.05524e-09
1.05538e-09
1.05553e-09
1.05567e-09
1.05582e-09
1.05596e-09
1.05611e-09
1.05625e-09
1.05641e-09
1.05658e-09
1.05674e-09
1.05689e-09
1.05704e-09
1.05719e-09
1.05734e-09
1.05749e-09
1.05764e-09
1.05779e-09
1.05795e-09
1.0581e-09
1.05825e-09
1.05006e-09
1.05018e-09
1.05029e-09
1.05041e-09
1.05052e-09
1.05064e-09
1.05075e-09
1.05087e-09
1.05098e-09
1.0511e-09
1.05121e-09
1.05133e-09
1.05144e-09
1.05156e-09
1.05167e-09
1.05179e-09
1.05191e-09
1.05202e-09
1.05214e-09
1.05226e-09
1.05238e-09
1.05249e-09
1.05261e-09
1.05273e-09
1.05285e-09
1.05297e-09
1.05308e-09
1.0532e-09
1.05332e-09
1.05344e-09
1.05356e-09
1.05368e-09
1.0538e-09
1.05393e-09
1.05405e-09
1.05417e-09
1.05429e-09
1.05441e-09
1.05455e-09
1.0547e-09
1.05485e-09
1.05498e-09
1.05511e-09
1.05523e-09
1.05536e-09
1.05548e-09
1.05561e-09
1.05574e-09
1.05586e-09
1.05599e-09
1.04883e-09
1.04892e-09
1.04901e-09
1.0491e-09
1.04919e-09
1.04928e-09
1.04937e-09
1.04947e-09
1.04956e-09
1.04965e-09
1.04974e-09
1.04983e-09
1.04993e-09
1.05002e-09
1.05011e-09
1.0502e-09
1.0503e-09
1.05039e-09
1.05048e-09
1.05058e-09
1.05067e-09
1.05076e-09
1.05086e-09
1.05095e-09
1.05104e-09
1.05114e-09
1.05123e-09
1.05133e-09
1.05142e-09
1.05152e-09
1.05162e-09
1.05173e-09
1.05183e-09
1.05194e-09
1.05206e-09
1.05217e-09
1.0523e-09
1.05243e-09
1.05257e-09
1.05271e-09
1.05285e-09
1.05298e-09
1.05311e-09
1.05324e-09
1.05335e-09
1.05345e-09
1.05355e-09
1.05365e-09
1.05375e-09
1.05386e-09
1.04747e-09
1.04752e-09
1.04757e-09
1.04762e-09
1.04767e-09
1.04772e-09
1.04778e-09
1.04785e-09
1.04791e-09
1.04798e-09
1.04804e-09
1.04811e-09
1.04817e-09
1.04824e-09
1.0483e-09
1.04837e-09
1.04844e-09
1.0485e-09
1.04857e-09
1.04863e-09
1.0487e-09
1.04876e-09
1.04883e-09
1.0489e-09
1.04896e-09
1.04903e-09
1.0491e-09
1.04916e-09
1.04923e-09
1.0493e-09
1.04937e-09
1.04943e-09
1.04951e-09
1.04958e-09
1.04966e-09
1.04974e-09
1.04982e-09
1.04991e-09
1.05001e-09
1.05011e-09
1.05022e-09
1.05032e-09
1.05042e-09
1.05052e-09
1.05061e-09
1.05069e-09
1.05077e-09
1.05084e-09
1.05092e-09
1.05099e-09
1.04486e-09
1.04486e-09
1.04487e-09
1.04488e-09
1.04488e-09
1.0449e-09
1.04491e-09
1.04492e-09
1.04494e-09
1.04496e-09
1.04498e-09
1.04499e-09
1.04501e-09
1.04503e-09
1.04504e-09
1.04506e-09
1.04507e-09
1.04509e-09
1.04511e-09
1.04512e-09
1.04514e-09
1.04515e-09
1.04516e-09
1.04518e-09
1.04519e-09
1.0452e-09
1.04521e-09
1.04522e-09
1.04523e-09
1.04524e-09
1.04525e-09
1.04526e-09
1.04527e-09
1.04527e-09
1.04528e-09
1.04528e-09
1.04528e-09
1.04529e-09
1.04529e-09
1.0453e-09
1.04531e-09
1.04532e-09
1.04533e-09
1.04534e-09
1.04536e-09
1.04537e-09
1.04539e-09
1.04542e-09
1.04544e-09
1.04547e-09
1.06358e-09
1.0642e-09
1.06475e-09
1.06524e-09
1.0657e-09
1.06613e-09
1.06656e-09
1.06698e-09
1.0674e-09
1.06783e-09
1.06826e-09
1.06869e-09
1.06913e-09
1.06957e-09
1.07e-09
1.07044e-09
1.07086e-09
1.0713e-09
1.07175e-09
1.0722e-09
1.07267e-09
1.07313e-09
1.0736e-09
1.07408e-09
1.07455e-09
1.07503e-09
1.07551e-09
1.076e-09
1.07649e-09
1.07698e-09
1.07747e-09
1.07797e-09
1.07847e-09
1.07898e-09
1.07949e-09
1.08e-09
1.08053e-09
1.08105e-09
1.08158e-09
1.08211e-09
1.08265e-09
1.08319e-09
1.08374e-09
1.08429e-09
1.08485e-09
1.08541e-09
1.08597e-09
1.08654e-09
1.08712e-09
1.0877e-09
1.08828e-09
1.08888e-09
1.08947e-09
1.09007e-09
1.09068e-09
1.0913e-09
1.09191e-09
1.09254e-09
1.09317e-09
1.0938e-09
1.09444e-09
1.09509e-09
1.09574e-09
1.0964e-09
1.09706e-09
1.09773e-09
1.09843e-09
1.09901e-09
1.10012e-09
1.06369e-09
1.06415e-09
1.06458e-09
1.06498e-09
1.06533e-09
1.06565e-09
1.06594e-09
1.06622e-09
1.06648e-09
1.06673e-09
1.06699e-09
1.06724e-09
1.06749e-09
1.06774e-09
1.068e-09
1.06825e-09
1.0685e-09
1.06874e-09
1.06897e-09
1.0692e-09
1.06946e-09
1.06973e-09
1.07e-09
1.07028e-09
1.07056e-09
1.07084e-09
1.07113e-09
1.07142e-09
1.07171e-09
1.072e-09
1.0723e-09
1.0726e-09
1.0729e-09
1.07321e-09
1.0735e-09
1.07377e-09
1.07401e-09
1.07425e-09
1.0745e-09
1.07476e-09
1.07504e-09
1.07533e-09
1.07564e-09
1.07596e-09
1.07629e-09
1.07663e-09
1.07698e-09
1.07732e-09
1.07768e-09
1.07803e-09
1.07839e-09
1.07875e-09
1.07912e-09
1.07949e-09
1.07986e-09
1.08024e-09
1.08062e-09
1.08101e-09
1.0814e-09
1.08179e-09
1.08219e-09
1.08259e-09
1.083e-09
1.0834e-09
1.08382e-09
1.08423e-09
1.08467e-09
1.08502e-09
1.08572e-09
1.06464e-09
1.0649e-09
1.06518e-09
1.06546e-09
1.06573e-09
1.06599e-09
1.06626e-09
1.06652e-09
1.06678e-09
1.06704e-09
1.06731e-09
1.06758e-09
1.06785e-09
1.06812e-09
1.06839e-09
1.06865e-09
1.06891e-09
1.06917e-09
1.06941e-09
1.06964e-09
1.06987e-09
1.07012e-09
1.0704e-09
1.07069e-09
1.07101e-09
1.07133e-09
1.07165e-09
1.07198e-09
1.07231e-09
1.07265e-09
1.07299e-09
1.07333e-09
1.07368e-09
1.07403e-09
1.07435e-09
1.07466e-09
1.07495e-09
1.07521e-09
1.07547e-09
1.07574e-09
1.07602e-09
1.07631e-09
1.07662e-09
1.07694e-09
1.07727e-09
1.07762e-09
1.07797e-09
1.07834e-09
1.07873e-09
1.07912e-09
1.07952e-09
1.07994e-09
1.08037e-09
1.08081e-09
1.08124e-09
1.08169e-09
1.08214e-09
1.08259e-09
1.08305e-09
1.08351e-09
1.08398e-09
1.08445e-09
1.08493e-09
1.08541e-09
1.0859e-09
1.08639e-09
1.08691e-09
1.08734e-09
1.08816e-09
1.06543e-09
1.06572e-09
1.06602e-09
1.06633e-09
1.06664e-09
1.06695e-09
1.06726e-09
1.06758e-09
1.06789e-09
1.06821e-09
1.06852e-09
1.06884e-09
1.06916e-09
1.06947e-09
1.06979e-09
1.0701e-09
1.0704e-09
1.07071e-09
1.071e-09
1.07129e-09
1.07157e-09
1.07184e-09
1.07211e-09
1.0724e-09
1.0727e-09
1.07302e-09
1.07335e-09
1.07371e-09
1.07408e-09
1.07446e-09
1.07484e-09
1.07522e-09
1.07561e-09
1.076e-09
1.07639e-09
1.07679e-09
1.07719e-09
1.07759e-09
1.078e-09
1.07842e-09
1.07884e-09
1.07926e-09
1.07969e-09
1.08013e-09
1.08057e-09
1.08101e-09
1.08146e-09
1.08192e-09
1.08238e-09
1.08284e-09
1.08331e-09
1.08378e-09
1.08426e-09
1.08474e-09
1.08523e-09
1.08573e-09
1.08622e-09
1.08673e-09
1.08724e-09
1.08775e-09
1.08827e-09
1.0888e-09
1.08933e-09
1.08986e-09
1.0904e-09
1.09094e-09
1.09151e-09
1.09198e-09
1.0929e-09
1.06551e-09
1.06577e-09
1.06603e-09
1.0663e-09
1.06657e-09
1.06684e-09
1.06711e-09
1.06739e-09
1.06767e-09
1.06796e-09
1.06824e-09
1.06853e-09
1.06883e-09
1.06913e-09
1.06943e-09
1.06973e-09
1.07003e-09
1.07032e-09
1.07061e-09
1.0709e-09
1.07117e-09
1.07144e-09
1.07169e-09
1.07195e-09
1.07222e-09
1.0725e-09
1.07279e-09
1.0731e-09
1.07342e-09
1.07376e-09
1.07411e-09
1.07447e-09
1.07484e-09
1.07521e-09
1.07558e-09
1.07596e-09
1.07634e-09
1.07672e-09
1.07711e-09
1.0775e-09
1.0779e-09
1.0783e-09
1.07871e-09
1.07912e-09
1.07953e-09
1.07995e-09
1.08038e-09
1.0808e-09
1.08124e-09
1.08167e-09
1.08211e-09
1.08256e-09
1.08301e-09
1.08347e-09
1.08393e-09
1.08439e-09
1.08486e-09
1.08533e-09
1.08581e-09
1.0863e-09
1.08679e-09
1.08728e-09
1.08778e-09
1.08829e-09
1.0888e-09
1.08931e-09
1.08985e-09
1.0903e-09
1.09116e-09
1.06525e-09
1.06552e-09
1.06579e-09
1.06607e-09
1.06635e-09
1.06663e-09
1.06691e-09
1.0672e-09
1.06749e-09
1.06778e-09
1.06808e-09
1.06838e-09
1.06868e-09
1.06899e-09
1.0693e-09
1.06961e-09
1.06993e-09
1.07024e-09
1.07056e-09
1.07087e-09
1.07119e-09
1.0715e-09
1.0718e-09
1.0721e-09
1.0724e-09
1.07268e-09
1.07297e-09
1.07326e-09
1.07356e-09
1.07387e-09
1.07418e-09
1.07451e-09
1.07485e-09
1.0752e-09
1.07556e-09
1.07593e-09
1.07632e-09
1.07671e-09
1.0771e-09
1.07751e-09
1.07791e-09
1.07832e-09
1.07873e-09
1.07915e-09
1.07958e-09
1.08e-09
1.08043e-09
1.08087e-09
1.08131e-09
1.08176e-09
1.08221e-09
1.08266e-09
1.08312e-09
1.08358e-09
1.08405e-09
1.08453e-09
1.08501e-09
1.08549e-09
1.08598e-09
1.08647e-09
1.08697e-09
1.08747e-09
1.08798e-09
1.0885e-09
1.08902e-09
1.08954e-09
1.09009e-09
1.09054e-09
1.09142e-09
1.06464e-09
1.06489e-09
1.06515e-09
1.0654e-09
1.06566e-09
1.06593e-09
1.06619e-09
1.06646e-09
1.06673e-09
1.06701e-09
1.06728e-09
1.06757e-09
1.06785e-09
1.06813e-09
1.06842e-09
1.06872e-09
1.06901e-09
1.06931e-09
1.06961e-09
1.06992e-09
1.07022e-09
1.07052e-09
1.07083e-09
1.07112e-09
1.07142e-09
1.0717e-09
1.07198e-09
1.07226e-09
1.07254e-09
1.07283e-09
1.07312e-09
1.07342e-09
1.07373e-09
1.07405e-09
1.07438e-09
1.07472e-09
1.07508e-09
1.07544e-09
1.07581e-09
1.07619e-09
1.07657e-09
1.07695e-09
1.07734e-09
1.07773e-09
1.07813e-09
1.07853e-09
1.07893e-09
1.07934e-09
1.07975e-09
1.08017e-09
1.08059e-09
1.08102e-09
1.08145e-09
1.08188e-09
1.08232e-09
1.08277e-09
1.08322e-09
1.08367e-09
1.08413e-09
1.08459e-09
1.08506e-09
1.08553e-09
1.08601e-09
1.08649e-09
1.08698e-09
1.08747e-09
1.08798e-09
1.08841e-09
1.08924e-09
1.06359e-09
1.06385e-09
1.06411e-09
1.06438e-09
1.06464e-09
1.0649e-09
1.06516e-09
1.06542e-09
1.06568e-09
1.06595e-09
1.06622e-09
1.06649e-09
1.06677e-09
1.06705e-09
1.06733e-09
1.06761e-09
1.0679e-09
1.06819e-09
1.06848e-09
1.06878e-09
1.06908e-09
1.06938e-09
1.06968e-09
1.06999e-09
1.07029e-09
1.0706e-09
1.0709e-09
1.0712e-09
1.0715e-09
1.0718e-09
1.07209e-09
1.07239e-09
1.07268e-09
1.07298e-09
1.07328e-09
1.07359e-09
1.0739e-09
1.07422e-09
1.07454e-09
1.07488e-09
1.07522e-09
1.07556e-09
1.07591e-09
1.07628e-09
1.07664e-09
1.07702e-09
1.0774e-09
1.07779e-09
1.07819e-09
1.0786e-09
1.079e-09
1.07942e-09
1.07983e-09
1.08025e-09
1.08068e-09
1.08111e-09
1.08154e-09
1.08198e-09
1.08242e-09
1.08287e-09
1.08332e-09
1.08378e-09
1.08424e-09
1.08471e-09
1.08518e-09
1.08565e-09
1.08615e-09
1.08656e-09
1.08736e-09
1.0622e-09
1.06242e-09
1.06265e-09
1.06288e-09
1.06311e-09
1.06334e-09
1.06358e-09
1.06382e-09
1.06406e-09
1.0643e-09
1.06455e-09
1.0648e-09
1.06505e-09
1.0653e-09
1.06556e-09
1.06582e-09
1.06608e-09
1.06634e-09
1.06661e-09
1.06688e-09
1.06715e-09
1.06742e-09
1.0677e-09
1.06798e-09
1.06826e-09
1.06855e-09
1.06883e-09
1.06912e-09
1.0694e-09
1.06969e-09
1.06997e-09
1.07024e-09
1.07052e-09
1.07079e-09
1.07107e-09
1.07136e-09
1.07164e-09
1.07194e-09
1.07223e-09
1.07254e-09
1.07285e-09
1.07316e-09
1.07348e-09
1.07381e-09
1.07415e-09
1.07449e-09
1.07485e-09
1.0752e-09
1.07557e-09
1.07593e-09
1.0763e-09
1.07668e-09
1.07705e-09
1.07744e-09
1.07782e-09
1.07821e-09
1.0786e-09
1.079e-09
1.0794e-09
1.07981e-09
1.08022e-09
1.08063e-09
1.08105e-09
1.08147e-09
1.0819e-09
1.08233e-09
1.08278e-09
1.08315e-09
1.08388e-09
1.06041e-09
1.06062e-09
1.06083e-09
1.06104e-09
1.06126e-09
1.06151e-09
1.06175e-09
1.06199e-09
1.06223e-09
1.06246e-09
1.06269e-09
1.06292e-09
1.06315e-09
1.06339e-09
1.06362e-09
1.06386e-09
1.0641e-09
1.06434e-09
1.06458e-09
1.06483e-09
1.06508e-09
1.06533e-09
1.06558e-09
1.06584e-09
1.0661e-09
1.06636e-09
1.06662e-09
1.06689e-09
1.06716e-09
1.06743e-09
1.0677e-09
1.06798e-09
1.06825e-09
1.06853e-09
1.0688e-09
1.06908e-09
1.06936e-09
1.06964e-09
1.06992e-09
1.07019e-09
1.07047e-09
1.07075e-09
1.07104e-09
1.07132e-09
1.07162e-09
1.07191e-09
1.07221e-09
1.07252e-09
1.07282e-09
1.07314e-09
1.07346e-09
1.07378e-09
1.0741e-09
1.07444e-09
1.07477e-09
1.07511e-09
1.07546e-09
1.07581e-09
1.07617e-09
1.07653e-09
1.07689e-09
1.07726e-09
1.07763e-09
1.07801e-09
1.07839e-09
1.07877e-09
1.07918e-09
1.07952e-09
1.08017e-09
1.05842e-09
1.0586e-09
1.05878e-09
1.05896e-09
1.05915e-09
1.05933e-09
1.05952e-09
1.05971e-09
1.0599e-09
1.06009e-09
1.06029e-09
1.06049e-09
1.06068e-09
1.06089e-09
1.06109e-09
1.06129e-09
1.0615e-09
1.06171e-09
1.06192e-09
1.06213e-09
1.06235e-09
1.06256e-09
1.06278e-09
1.063e-09
1.06323e-09
1.06345e-09
1.06368e-09
1.06391e-09
1.06414e-09
1.06438e-09
1.06462e-09
1.06486e-09
1.0651e-09
1.06534e-09
1.06559e-09
1.06583e-09
1.06608e-09
1.06633e-09
1.06658e-09
1.06682e-09
1.06707e-09
1.06732e-09
1.06757e-09
1.06782e-09
1.06807e-09
1.06833e-09
1.06859e-09
1.06886e-09
1.06913e-09
1.0694e-09
1.06968e-09
1.06996e-09
1.07024e-09
1.07053e-09
1.07083e-09
1.07113e-09
1.07143e-09
1.07174e-09
1.07205e-09
1.07237e-09
1.07269e-09
1.07301e-09
1.07334e-09
1.07367e-09
1.07401e-09
1.07434e-09
1.0747e-09
1.07499e-09
1.07555e-09
1.05613e-09
1.05628e-09
1.05644e-09
1.05659e-09
1.05675e-09
1.0569e-09
1.05707e-09
1.05724e-09
1.05743e-09
1.05762e-09
1.0578e-09
1.05798e-09
1.05816e-09
1.05833e-09
1.0585e-09
1.05868e-09
1.05885e-09
1.05903e-09
1.05921e-09
1.05939e-09
1.05957e-09
1.05975e-09
1.05994e-09
1.06013e-09
1.06032e-09
1.06051e-09
1.0607e-09
1.0609e-09
1.06109e-09
1.06129e-09
1.06149e-09
1.06169e-09
1.0619e-09
1.06211e-09
1.06232e-09
1.06253e-09
1.06274e-09
1.06296e-09
1.06317e-09
1.06339e-09
1.06361e-09
1.06384e-09
1.06406e-09
1.06429e-09
1.06452e-09
1.06476e-09
1.06499e-09
1.06523e-09
1.06547e-09
1.06571e-09
1.06596e-09
1.06621e-09
1.06645e-09
1.0667e-09
1.06696e-09
1.06721e-09
1.06747e-09
1.06772e-09
1.06798e-09
1.06824e-09
1.06851e-09
1.06877e-09
1.06904e-09
1.06931e-09
1.06959e-09
1.06987e-09
1.07016e-09
1.07041e-09
1.07088e-09
1.05396e-09
1.05408e-09
1.05421e-09
1.05433e-09
1.05445e-09
1.05458e-09
1.0547e-09
1.05483e-09
1.05496e-09
1.05509e-09
1.05522e-09
1.05535e-09
1.05548e-09
1.05562e-09
1.05575e-09
1.05589e-09
1.05603e-09
1.05617e-09
1.05631e-09
1.05645e-09
1.0566e-09
1.05674e-09
1.05689e-09
1.05704e-09
1.05718e-09
1.05734e-09
1.05749e-09
1.05764e-09
1.0578e-09
1.05795e-09
1.05811e-09
1.05827e-09
1.05843e-09
1.0586e-09
1.05876e-09
1.05893e-09
1.0591e-09
1.05927e-09
1.05944e-09
1.05961e-09
1.05978e-09
1.05996e-09
1.06014e-09
1.06032e-09
1.0605e-09
1.06069e-09
1.06087e-09
1.06106e-09
1.06125e-09
1.06144e-09
1.06163e-09
1.06183e-09
1.06202e-09
1.06222e-09
1.06242e-09
1.06263e-09
1.06283e-09
1.06304e-09
1.06325e-09
1.06345e-09
1.06367e-09
1.06388e-09
1.06409e-09
1.06431e-09
1.06453e-09
1.06475e-09
1.06498e-09
1.06518e-09
1.06555e-09
1.05107e-09
1.05116e-09
1.05124e-09
1.05133e-09
1.05142e-09
1.05151e-09
1.0516e-09
1.0517e-09
1.05179e-09
1.05189e-09
1.05198e-09
1.05208e-09
1.05218e-09
1.05228e-09
1.05237e-09
1.05247e-09
1.05258e-09
1.05268e-09
1.05278e-09
1.05288e-09
1.05299e-09
1.05309e-09
1.0532e-09
1.05331e-09
1.05342e-09
1.05353e-09
1.05364e-09
1.05375e-09
1.05386e-09
1.05397e-09
1.05409e-09
1.0542e-09
1.05432e-09
1.05444e-09
1.05455e-09
1.05467e-09
1.05479e-09
1.05492e-09
1.05504e-09
1.05516e-09
1.05529e-09
1.05541e-09
1.05554e-09
1.05567e-09
1.0558e-09
1.05593e-09
1.05606e-09
1.05619e-09
1.05632e-09
1.05646e-09
1.05659e-09
1.05673e-09
1.05687e-09
1.05701e-09
1.05715e-09
1.05729e-09
1.05743e-09
1.05758e-09
1.05772e-09
1.05787e-09
1.05802e-09
1.05817e-09
1.05832e-09
1.05847e-09
1.05862e-09
1.05878e-09
1.05894e-09
1.05907e-09
1.05933e-09
1.04551e-09
1.04556e-09
1.04562e-09
1.04568e-09
1.04573e-09
1.04579e-09
1.04584e-09
1.04589e-09
1.04595e-09
1.046e-09
1.04605e-09
1.0461e-09
1.04614e-09
1.04618e-09
1.04622e-09
1.04624e-09
1.04627e-09
1.04629e-09
1.0463e-09
1.04632e-09
1.04633e-09
1.04633e-09
1.04634e-09
1.04634e-09
1.04634e-09
1.04634e-09
1.04634e-09
1.04635e-09
1.04635e-09
1.04636e-09
1.04637e-09
1.04638e-09
1.04639e-09
1.0464e-09
1.04641e-09
1.04642e-09
1.04643e-09
1.04644e-09
1.04646e-09
1.04647e-09
1.04648e-09
1.0465e-09
1.04651e-09
1.04652e-09
1.04654e-09
1.04655e-09
1.04656e-09
1.04658e-09
1.04659e-09
1.0466e-09
1.04662e-09
1.04663e-09
1.04664e-09
1.04665e-09
1.04666e-09
1.04667e-09
1.04668e-09
1.04669e-09
1.0467e-09
1.04671e-09
1.04672e-09
1.04672e-09
1.04673e-09
1.04674e-09
1.04674e-09
1.04675e-09
1.04676e-09
1.04676e-09
1.04677e-09
1.04473e-09
1.04593e-09
1.04701e-09
1.04798e-09
1.04886e-09
1.04964e-09
1.05034e-09
1.05097e-09
1.05154e-09
1.05205e-09
1.0525e-09
1.05291e-09
1.05327e-09
1.05363e-09
1.05386e-09
1.04475e-09
1.04598e-09
1.0471e-09
1.0481e-09
1.04901e-09
1.04981e-09
1.05054e-09
1.05119e-09
1.05178e-09
1.05231e-09
1.05278e-09
1.0532e-09
1.05358e-09
1.05393e-09
1.05422e-09
1.04476e-09
1.04603e-09
1.04717e-09
1.04819e-09
1.04911e-09
1.04994e-09
1.05069e-09
1.05136e-09
1.05196e-09
1.0525e-09
1.05299e-09
1.05343e-09
1.05382e-09
1.05418e-09
1.05449e-09
1.04476e-09
1.04604e-09
1.04719e-09
1.04823e-09
1.04917e-09
1.05001e-09
1.05076e-09
1.05144e-09
1.05205e-09
1.0526e-09
1.0531e-09
1.05355e-09
1.05395e-09
1.05432e-09
1.05463e-09
1.04477e-09
1.04604e-09
1.04719e-09
1.04823e-09
1.04916e-09
1.05e-09
1.05076e-09
1.05144e-09
1.05205e-09
1.0526e-09
1.0531e-09
1.05355e-09
1.05395e-09
1.05432e-09
1.05464e-09
1.04475e-09
1.04601e-09
1.04714e-09
1.04816e-09
1.04907e-09
1.0499e-09
1.05065e-09
1.05132e-09
1.05192e-09
1.05247e-09
1.05296e-09
1.0534e-09
1.0538e-09
1.05416e-09
1.05448e-09
1.04473e-09
1.04594e-09
1.04703e-09
1.04802e-09
1.04891e-09
1.0497e-09
1.05043e-09
1.05107e-09
1.05166e-09
1.05219e-09
1.05266e-09
1.05309e-09
1.05348e-09
1.05383e-09
1.05414e-09
1.0447e-09
1.04584e-09
1.04688e-09
1.04781e-09
1.04865e-09
1.04941e-09
1.05009e-09
1.05071e-09
1.05126e-09
1.05176e-09
1.05221e-09
1.05262e-09
1.05299e-09
1.05332e-09
1.05361e-09
1.04465e-09
1.04571e-09
1.04667e-09
1.04753e-09
1.04831e-09
1.04901e-09
1.04965e-09
1.05022e-09
1.05073e-09
1.05119e-09
1.05161e-09
1.05199e-09
1.05233e-09
1.05264e-09
1.05291e-09
1.0446e-09
1.04556e-09
1.04642e-09
1.04719e-09
1.0479e-09
1.04853e-09
1.0491e-09
1.04961e-09
1.05008e-09
1.0505e-09
1.05087e-09
1.05121e-09
1.05152e-09
1.0518e-09
1.05204e-09
1.04453e-09
1.04537e-09
1.04612e-09
1.0468e-09
1.04742e-09
1.04797e-09
1.04847e-09
1.04892e-09
1.04932e-09
1.04969e-09
1.05002e-09
1.05031e-09
1.05058e-09
1.05082e-09
1.05104e-09
1.04446e-09
1.04517e-09
1.0458e-09
1.04637e-09
1.04688e-09
1.04735e-09
1.04776e-09
1.04814e-09
1.04848e-09
1.04879e-09
1.04906e-09
1.04931e-09
1.04954e-09
1.04974e-09
1.04992e-09
1.04439e-09
1.04494e-09
1.04545e-09
1.0459e-09
1.0463e-09
1.04667e-09
1.047e-09
1.0473e-09
1.04757e-09
1.04782e-09
1.04803e-09
1.04823e-09
1.04841e-09
1.04857e-09
1.04871e-09
1.0443e-09
1.0447e-09
1.04505e-09
1.04538e-09
1.04567e-09
1.04593e-09
1.04617e-09
1.04638e-09
1.04658e-09
1.04675e-09
1.04691e-09
1.04705e-09
1.04718e-09
1.04729e-09
1.0474e-09
1.04418e-09
1.04433e-09
1.04447e-09
1.0446e-09
1.0447e-09
1.04476e-09
1.0448e-09
1.04482e-09
1.04483e-09
1.04484e-09
1.04484e-09
1.04484e-09
1.04484e-09
1.04485e-09
1.04485e-09
1.05408e-09
1.05425e-09
1.05441e-09
1.05457e-09
1.05471e-09
1.05481e-09
1.05489e-09
1.05494e-09
1.05498e-09
1.055e-09
1.05503e-09
1.05506e-09
1.05511e-09
1.05518e-09
1.05527e-09
1.05539e-09
1.05554e-09
1.05572e-09
1.05593e-09
1.05616e-09
1.05641e-09
1.05668e-09
1.05696e-09
1.05725e-09
1.05754e-09
1.05791e-09
1.05823e-09
1.05846e-09
1.05865e-09
1.05882e-09
1.05899e-09
1.05915e-09
1.05932e-09
1.05948e-09
1.05964e-09
1.05981e-09
1.05998e-09
1.06015e-09
1.06032e-09
1.0605e-09
1.06069e-09
1.06088e-09
1.06107e-09
1.06128e-09
1.06149e-09
1.06172e-09
1.0619e-09
1.06226e-09
1.06239e-09
1.06295e-09
1.05447e-09
1.05469e-09
1.0549e-09
1.05511e-09
1.05532e-09
1.05553e-09
1.05574e-09
1.05596e-09
1.05617e-09
1.05638e-09
1.05659e-09
1.0568e-09
1.05699e-09
1.05719e-09
1.05737e-09
1.05755e-09
1.05772e-09
1.05789e-09
1.05805e-09
1.0582e-09
1.05836e-09
1.0585e-09
1.05865e-09
1.0588e-09
1.05895e-09
1.0591e-09
1.05925e-09
1.0594e-09
1.05956e-09
1.05971e-09
1.05986e-09
1.06002e-09
1.06017e-09
1.06032e-09
1.06048e-09
1.06063e-09
1.06078e-09
1.06093e-09
1.06108e-09
1.06123e-09
1.06138e-09
1.06152e-09
1.06166e-09
1.06181e-09
1.06194e-09
1.0621e-09
1.06231e-09
1.06259e-09
1.06291e-09
1.06327e-09
1.05475e-09
1.05497e-09
1.05518e-09
1.0554e-09
1.05561e-09
1.05582e-09
1.05603e-09
1.05624e-09
1.05645e-09
1.05666e-09
1.05686e-09
1.05707e-09
1.05728e-09
1.05749e-09
1.05769e-09
1.0579e-09
1.05811e-09
1.05832e-09
1.05853e-09
1.05874e-09
1.05895e-09
1.05916e-09
1.05937e-09
1.05957e-09
1.05977e-09
1.05998e-09
1.06015e-09
1.06042e-09
1.06065e-09
1.06086e-09
1.06106e-09
1.06125e-09
1.06144e-09
1.06163e-09
1.06181e-09
1.062e-09
1.06218e-09
1.06237e-09
1.06255e-09
1.06273e-09
1.06291e-09
1.06308e-09
1.06326e-09
1.06343e-09
1.06361e-09
1.06377e-09
1.06394e-09
1.0641e-09
1.06426e-09
1.06443e-09
1.0549e-09
1.05511e-09
1.05533e-09
1.05554e-09
1.05576e-09
1.05597e-09
1.05619e-09
1.0564e-09
1.05662e-09
1.05683e-09
1.05705e-09
1.05726e-09
1.05747e-09
1.05769e-09
1.0579e-09
1.05811e-09
1.05832e-09
1.05853e-09
1.05874e-09
1.05895e-09
1.05916e-09
1.05937e-09
1.05957e-09
1.05978e-09
1.05999e-09
1.06019e-09
1.0604e-09
1.0606e-09
1.06081e-09
1.06102e-09
1.06122e-09
1.06143e-09
1.06164e-09
1.06184e-09
1.06205e-09
1.06225e-09
1.06246e-09
1.06266e-09
1.06287e-09
1.06307e-09
1.06327e-09
1.06348e-09
1.06368e-09
1.06388e-09
1.06409e-09
1.06429e-09
1.06448e-09
1.06472e-09
1.06495e-09
1.06517e-09
1.0549e-09
1.05512e-09
1.05533e-09
1.05554e-09
1.05576e-09
1.05597e-09
1.05618e-09
1.05639e-09
1.05661e-09
1.05682e-09
1.05703e-09
1.05724e-09
1.05745e-09
1.05766e-09
1.05787e-09
1.05808e-09