/*--------------------------------*- C++ -*----------------------------------*\
| =========                 |                                                 |
| \\      /  F ield         | OpenFOAM: The Open Source CFD Toolbox           |
|  \\    /   O peration     | Version:  2412                                  |
|   \\  /    A nd           | Website:  www.openfoam.com                      |
|    \\/     M anipulation  |                                                 |
\*---------------------------------------------------------------------------*/
FoamFile
{
    version     2.0;
    format      ascii;
    arch        "LSB;label=32;scalar=64";
    class       volScalarField;
    location    "1500";
    object      nuTilda;
}
// * * * * * * * * * * * * * * * * * * * * * * * * * * * * * * * * * * * * * //

dimensions      [0 2 -1 0 0 0 0];

internalField   nonuniform List<scalar> 
14620
(
5.84088e-06
5.84256e-06
5.84407e-06
5.84543e-06
5.84665e-06
5.84774e-06
5.84872e-06
5.84959e-06
5.85038e-06
5.85109e-06
5.85172e-06
5.85229e-06
5.85279e-06
5.85329e-06
5.85361e-06
5.84091e-06
5.84264e-06
5.8442e-06
5.8456e-06
5.84685e-06
5.84798e-06
5.84899e-06
5.8499e-06
5.85072e-06
5.85145e-06
5.8521e-06
5.8527e-06
5.85322e-06
5.85371e-06
5.85411e-06
5.84093e-06
5.8427e-06
5.84429e-06
5.84572e-06
5.84701e-06
5.84816e-06
5.8492e-06
5.85013e-06
5.85097e-06
5.85172e-06
5.8524e-06
5.85301e-06
5.85355e-06
5.85406e-06
5.85448e-06
5.84093e-06
5.84272e-06
5.84433e-06
5.84578e-06
5.84708e-06
5.84825e-06
5.8493e-06
5.85025e-06
5.8511e-06
5.85186e-06
5.85255e-06
5.85317e-06
5.85373e-06
5.85424e-06
5.85467e-06
5.84094e-06
5.84272e-06
5.84433e-06
5.84577e-06
5.84707e-06
5.84824e-06
5.84929e-06
5.85024e-06
5.85109e-06
5.85186e-06
5.85255e-06
5.85317e-06
5.85373e-06
5.85424e-06
5.85468e-06
5.84092e-06
5.84267e-06
5.84425e-06
5.84567e-06
5.84695e-06
5.8481e-06
5.84914e-06
5.85007e-06
5.85091e-06
5.85167e-06
5.85235e-06
5.85297e-06
5.85352e-06
5.85403e-06
5.85447e-06
5.84089e-06
5.84258e-06
5.84411e-06
5.84548e-06
5.84671e-06
5.84783e-06
5.84883e-06
5.84974e-06
5.85055e-06
5.85128e-06
5.85195e-06
5.85254e-06
5.85308e-06
5.85357e-06
5.854e-06
5.84084e-06
5.84244e-06
5.84389e-06
5.84519e-06
5.84636e-06
5.84741e-06
5.84837e-06
5.84922e-06
5.85e-06
5.85069e-06
5.85132e-06
5.85189e-06
5.8524e-06
5.85286e-06
5.85327e-06
5.84078e-06
5.84226e-06
5.8436e-06
5.8448e-06
5.84589e-06
5.84686e-06
5.84775e-06
5.84854e-06
5.84926e-06
5.8499e-06
5.85049e-06
5.85101e-06
5.85148e-06
5.85191e-06
5.85229e-06
5.8407e-06
5.84204e-06
5.84324e-06
5.84433e-06
5.84531e-06
5.84619e-06
5.84698e-06
5.8477e-06
5.84835e-06
5.84893e-06
5.84946e-06
5.84993e-06
5.85035e-06
5.85074e-06
5.85108e-06
5.84061e-06
5.84178e-06
5.84284e-06
5.84378e-06
5.84464e-06
5.84541e-06
5.8461e-06
5.84673e-06
5.8473e-06
5.84781e-06
5.84826e-06
5.84868e-06
5.84905e-06
5.84939e-06
5.84969e-06
5.84052e-06
5.8415e-06
5.84238e-06
5.84318e-06
5.84389e-06
5.84454e-06
5.84512e-06
5.84565e-06
5.84612e-06
5.84655e-06
5.84694e-06
5.84728e-06
5.8476e-06
5.84788e-06
5.84813e-06
5.84041e-06
5.84119e-06
5.84189e-06
5.84252e-06
5.84309e-06
5.8436e-06
5.84406e-06
5.84448e-06
5.84486e-06
5.8452e-06
5.8455e-06
5.84578e-06
5.84602e-06
5.84625e-06
5.84645e-06
5.84029e-06
5.84084e-06
5.84134e-06
5.84179e-06
5.8422e-06
5.84257e-06
5.8429e-06
5.8432e-06
5.84347e-06
5.84371e-06
5.84393e-06
5.84413e-06
5.8443e-06
5.84446e-06
5.84461e-06
5.84011e-06
5.84033e-06
5.84052e-06
5.8407e-06
5.84084e-06
5.84093e-06
5.84099e-06
5.84102e-06
5.84103e-06
5.84104e-06
5.84104e-06
5.84104e-06
5.84105e-06
5.84105e-06
5.84106e-06
5.85391e-06
5.85415e-06
5.85437e-06
5.85459e-06
5.85478e-06
5.85493e-06
5.85504e-06
5.85511e-06
5.85516e-06
5.85519e-06
5.85523e-06
5.85528e-06
5.85534e-06
5.85544e-06
5.85557e-06
5.85574e-06
5.85595e-06
5.8562e-06
5.85648e-06
5.8568e-06
5.85715e-06
5.85752e-06
5.85791e-06
5.85832e-06
5.85872e-06
5.85922e-06
5.85968e-06
5.86e-06
5.86026e-06
5.8605e-06
5.86073e-06
5.86096e-06
5.86118e-06
5.86141e-06
5.86164e-06
5.86186e-06
5.8621e-06
5.86233e-06
5.86257e-06
5.86282e-06
5.86308e-06
5.86334e-06
5.86361e-06
5.8639e-06
5.86419e-06
5.86452e-06
5.86476e-06
5.86526e-06
5.86543e-06
5.86621e-06
5.85446e-06
5.85475e-06
5.85505e-06
5.85534e-06
5.85563e-06
5.85593e-06
5.85622e-06
5.85652e-06
5.85681e-06
5.85711e-06
5.8574e-06
5.85768e-06
5.85796e-06
5.85822e-06
5.85848e-06
5.85873e-06
5.85897e-06
5.8592e-06
5.85942e-06
5.85963e-06
5.85985e-06
5.86005e-06
5.86026e-06
5.86046e-06
5.86067e-06
5.86088e-06
5.86109e-06
5.8613e-06
5.86151e-06
5.86172e-06
5.86194e-06
5.86215e-06
5.86236e-06
5.86257e-06
5.86278e-06
5.863e-06
5.8632e-06
5.86341e-06
5.86362e-06
5.86382e-06
5.86403e-06
5.86423e-06
5.86443e-06
5.86463e-06
5.86481e-06
5.86502e-06
5.86531e-06
5.86571e-06
5.86615e-06
5.86664e-06
5.85485e-06
5.85515e-06
5.85544e-06
5.85574e-06
5.85603e-06
5.85633e-06
5.85662e-06
5.85691e-06
5.8572e-06
5.85749e-06
5.85778e-06
5.85806e-06
5.85835e-06
5.85864e-06
5.85893e-06
5.85922e-06
5.85951e-06
5.8598e-06
5.86009e-06
5.86038e-06
5.86067e-06
5.86096e-06
5.86124e-06
5.86153e-06
5.86181e-06
5.8621e-06
5.86234e-06
5.86271e-06
5.86303e-06
5.86331e-06
5.86358e-06
5.86385e-06
5.86411e-06
5.86437e-06
5.86463e-06
5.86488e-06
5.86514e-06
5.86539e-06
5.86564e-06
5.86589e-06
5.86614e-06
5.86638e-06
5.86663e-06
5.86687e-06
5.8671e-06
5.86734e-06
5.86756e-06
5.86779e-06
5.86801e-06
5.86824e-06
5.85505e-06
5.85535e-06
5.85565e-06
5.85595e-06
5.85624e-06
5.85654e-06
5.85684e-06
5.85714e-06
5.85743e-06
5.85773e-06
5.85803e-06
5.85833e-06
5.85862e-06
5.85892e-06
5.85921e-06
5.8595e-06
5.8598e-06
5.86009e-06
5.86038e-06
5.86067e-06
5.86096e-06
5.86124e-06
5.86153e-06
5.86182e-06
5.8621e-06
5.86239e-06
5.86267e-06
5.86296e-06
5.86324e-06
5.86353e-06
5.86381e-06
5.8641e-06
5.86438e-06
5.86467e-06
5.86495e-06
5.86523e-06
5.86552e-06
5.8658e-06
5.86608e-06
5.86636e-06
5.86665e-06
5.86693e-06
5.86721e-06
5.86749e-06
5.86777e-06
5.86805e-06
5.86831e-06
5.86864e-06
5.86895e-06
5.86927e-06
5.85505e-06
5.85535e-06
5.85565e-06
5.85595e-06
5.85624e-06
5.85654e-06
5.85683e-06
5.85712e-06
5.85742e-06
5.85771e-06
5.858e-06
5.8583e-06
5.85859e-06
5.85888e-06
5.85917e-06
5.85946e-06
5.85976e-06
5.86005e-06
5.86034e-06
5.86063e-06
5.86092e-06
5.86121e-06
5.86151e-06
5.8618e-06
5.86209e-06
5.86238e-06
5.86267e-06
5.86296e-06
5.86325e-06
5.86355e-06
5.86384e-06
5.86413e-06
5.86442e-06
5.86471e-06
5.865e-06
5.86529e-06
5.86558e-06
5.86587e-06
5.86617e-06
5.86646e-06
5.86675e-06
5.86704e-06
5.86734e-06
5.86763e-06
5.86792e-06
5.86821e-06
5.86851e-06
5.8688e-06
5.86909e-06
5.8694e-06
5.85483e-06
5.85512e-06
5.85541e-06
5.8557e-06
5.85599e-06
5.85628e-06
5.85656e-06
5.85685e-06
5.85714e-06
5.85743e-06
5.85772e-06
5.85801e-06
5.8583e-06
5.85859e-06
5.85888e-06
5.85917e-06
5.85946e-06
5.85974e-06
5.86003e-06
5.86032e-06
5.86061e-06
5.8609e-06
5.86119e-06
5.86147e-06
5.86176e-06
5.86205e-06
5.86234e-06
5.86262e-06
5.86291e-06
5.8632e-06
5.86349e-06
5.86377e-06
5.86406e-06
5.86435e-06
5.86464e-06
5.86493e-06
5.86521e-06
5.8655e-06
5.86579e-06
5.86608e-06
5.86637e-06
5.86666e-06
5.86695e-06
5.86724e-06
5.86753e-06
5.86782e-06
5.86811e-06
5.86839e-06
5.8687e-06
5.86902e-06
5.85434e-06
5.85463e-06
5.8549e-06
5.85518e-06
5.85546e-06
5.85574e-06
5.85601e-06
5.85629e-06
5.85657e-06
5.85685e-06
5.85712e-06
5.8574e-06
5.85768e-06
5.85796e-06
5.85823e-06
5.85851e-06
5.85879e-06
5.85907e-06
5.85935e-06
5.85963e-06
5.85991e-06
5.86019e-06
5.86047e-06
5.86075e-06
5.86103e-06
5.86131e-06
5.86159e-06
5.86187e-06
5.86215e-06
5.86244e-06
5.86272e-06
5.863e-06
5.86329e-06
5.86357e-06
5.86386e-06
5.86414e-06
5.86443e-06
5.86471e-06
5.865e-06
5.86529e-06
5.86558e-06
5.86586e-06
5.86615e-06
5.86644e-06
5.86673e-06
5.86702e-06
5.86732e-06
5.86761e-06
5.8679e-06
5.8682e-06
5.8536e-06
5.85386e-06
5.85412e-06
5.85438e-06
5.85465e-06
5.85491e-06
5.85517e-06
5.85543e-06
5.85569e-06
5.85596e-06
5.85622e-06
5.85648e-06
5.85675e-06
5.85701e-06
5.85727e-06
5.85754e-06
5.8578e-06
5.85807e-06
5.85833e-06
5.8586e-06
5.85886e-06
5.85913e-06
5.8594e-06
5.85966e-06
5.85993e-06
5.8602e-06
5.86046e-06
5.86073e-06
5.861e-06
5.86127e-06
5.86154e-06
5.86181e-06
5.86208e-06
5.86235e-06
5.86262e-06
5.86289e-06
5.86316e-06
5.86344e-06
5.86371e-06
5.86398e-06
5.86426e-06
5.86453e-06
5.86481e-06
5.86509e-06
5.86536e-06
5.86564e-06
5.86592e-06
5.8662e-06
5.86648e-06
5.86677e-06
5.85259e-06
5.85284e-06
5.85308e-06
5.85332e-06
5.85356e-06
5.8538e-06
5.85405e-06
5.85429e-06
5.85453e-06
5.85477e-06
5.85501e-06
5.85526e-06
5.8555e-06
5.85574e-06
5.85599e-06
5.85623e-06
5.85647e-06
5.85672e-06
5.85696e-06
5.85721e-06
5.85745e-06
5.8577e-06
5.85795e-06
5.8582e-06
5.85844e-06
5.85869e-06
5.85894e-06
5.85919e-06
5.85944e-06
5.85969e-06
5.85994e-06
5.86019e-06
5.86045e-06
5.8607e-06
5.86095e-06
5.86121e-06
5.86146e-06
5.86172e-06
5.86198e-06
5.86224e-06
5.86249e-06
5.86275e-06
5.86301e-06
5.86328e-06
5.86354e-06
5.8638e-06
5.86406e-06
5.86433e-06
5.86459e-06
5.86487e-06
5.85135e-06
5.85157e-06
5.85179e-06
5.85201e-06
5.85222e-06
5.85244e-06
5.85266e-06
5.85288e-06
5.85309e-06
5.85331e-06
5.85353e-06
5.85375e-06
5.85397e-06
5.85419e-06
5.85441e-06
5.85463e-06
5.85485e-06
5.85507e-06
5.85529e-06
5.85551e-06
5.85574e-06
5.85596e-06
5.85618e-06
5.8564e-06
5.85663e-06
5.85685e-06
5.85708e-06
5.8573e-06
5.85753e-06
5.85775e-06
5.85798e-06
5.85821e-06
5.85844e-06
5.85867e-06
5.8589e-06
5.85912e-06
5.85936e-06
5.85959e-06
5.85982e-06
5.86005e-06
5.86028e-06
5.86052e-06
5.86075e-06
5.86099e-06
5.86123e-06
5.86146e-06
5.8617e-06
5.86194e-06
5.86218e-06
5.86243e-06
5.84992e-06
5.85012e-06
5.85031e-06
5.8505e-06
5.85069e-06
5.85088e-06
5.85107e-06
5.85126e-06
5.85145e-06
5.85164e-06
5.85183e-06
5.85202e-06
5.85221e-06
5.85241e-06
5.8526e-06
5.85279e-06
5.85298e-06
5.85318e-06
5.85337e-06
5.85356e-06
5.85376e-06
5.85395e-06
5.85415e-06
5.85434e-06
5.85454e-06
5.85473e-06
5.85493e-06
5.85513e-06
5.85533e-06
5.85553e-06
5.85572e-06
5.85592e-06
5.85612e-06
5.85633e-06
5.85653e-06
5.85673e-06
5.85693e-06
5.85714e-06
5.85738e-06
5.8576e-06
5.85781e-06
5.85802e-06
5.85823e-06
5.85844e-06
5.85864e-06
5.85885e-06
5.85906e-06
5.85927e-06
5.85949e-06
5.8597e-06
5.84833e-06
5.84849e-06
5.84865e-06
5.84881e-06
5.84897e-06
5.84913e-06
5.84929e-06
5.84945e-06
5.84961e-06
5.84977e-06
5.84993e-06
5.85009e-06
5.85025e-06
5.85041e-06
5.85057e-06
5.85073e-06
5.85089e-06
5.85106e-06
5.85122e-06
5.85138e-06
5.85155e-06
5.85171e-06
5.85187e-06
5.85204e-06
5.8522e-06
5.85237e-06
5.85253e-06
5.8527e-06
5.85286e-06
5.85303e-06
5.8532e-06
5.85336e-06
5.85353e-06
5.8537e-06
5.85387e-06
5.85404e-06
5.85421e-06
5.85438e-06
5.85457e-06
5.85478e-06
5.85498e-06
5.85516e-06
5.85534e-06
5.85551e-06
5.85569e-06
5.85586e-06
5.85604e-06
5.85621e-06
5.85639e-06
5.85657e-06
5.84661e-06
5.84674e-06
5.84686e-06
5.84699e-06
5.84711e-06
5.84724e-06
5.84737e-06
5.8475e-06
5.84762e-06
5.84775e-06
5.84788e-06
5.84801e-06
5.84814e-06
5.84827e-06
5.8484e-06
5.84852e-06
5.84865e-06
5.84878e-06
5.84891e-06
5.84904e-06
5.84917e-06
5.8493e-06
5.84943e-06
5.84956e-06
5.84969e-06
5.84983e-06
5.84996e-06
5.85009e-06
5.85022e-06
5.85036e-06
5.8505e-06
5.85064e-06
5.85079e-06
5.85094e-06
5.8511e-06
5.85127e-06
5.85144e-06
5.85162e-06
5.85181e-06
5.85201e-06
5.8522e-06
5.85239e-06
5.85257e-06
5.85274e-06
5.8529e-06
5.85304e-06
5.85318e-06
5.85332e-06
5.85346e-06
5.8536e-06
5.84472e-06
5.84479e-06
5.84485e-06
5.84492e-06
5.84499e-06
5.84507e-06
5.84515e-06
5.84524e-06
5.84533e-06
5.84542e-06
5.84551e-06
5.8456e-06
5.8457e-06
5.84579e-06
5.84588e-06
5.84597e-06
5.84606e-06
5.84615e-06
5.84624e-06
5.84634e-06
5.84643e-06
5.84652e-06
5.84661e-06
5.8467e-06
5.8468e-06
5.84689e-06
5.84698e-06
5.84708e-06
5.84717e-06
5.84726e-06
5.84736e-06
5.84745e-06
5.84755e-06
5.84765e-06
5.84776e-06
5.84787e-06
5.84799e-06
5.84812e-06
5.84825e-06
5.84839e-06
5.84854e-06
5.84869e-06
5.84883e-06
5.84896e-06
5.84909e-06
5.84921e-06
5.84931e-06
5.84941e-06
5.84952e-06
5.84962e-06
5.84106e-06
5.84107e-06
5.84108e-06
5.84109e-06
5.8411e-06
5.84112e-06
5.84114e-06
5.84116e-06
5.84118e-06
5.84121e-06
5.84123e-06
5.84125e-06
5.84128e-06
5.8413e-06
5.84132e-06
5.84135e-06
5.84137e-06
5.84139e-06
5.84141e-06
5.84143e-06
5.84145e-06
5.84147e-06
5.84149e-06
5.84151e-06
5.84153e-06
5.84155e-06
5.84156e-06
5.84158e-06
5.84159e-06
5.84161e-06
5.84162e-06
5.84163e-06
5.84164e-06
5.84165e-06
5.84165e-06
5.84166e-06
5.84166e-06
5.84167e-06
5.84167e-06
5.84168e-06
5.84169e-06
5.84171e-06
5.84172e-06
5.84174e-06
5.84176e-06
5.84179e-06
5.84181e-06
5.84185e-06
5.84188e-06
5.84192e-06
5.86706e-06
5.86791e-06
5.86867e-06
5.86936e-06
5.86998e-06
5.87058e-06
5.87117e-06
5.87175e-06
5.87233e-06
5.87291e-06
5.87351e-06
5.8741e-06
5.8747e-06
5.8753e-06
5.8759e-06
5.8765e-06
5.87708e-06
5.87767e-06
5.87829e-06
5.87892e-06
5.87956e-06
5.8802e-06
5.88084e-06
5.88149e-06
5.88214e-06
5.88279e-06
5.88345e-06
5.88411e-06
5.88478e-06
5.88545e-06
5.88613e-06
5.88681e-06
5.8875e-06
5.88819e-06
5.88888e-06
5.88959e-06
5.8903e-06
5.89101e-06
5.89173e-06
5.89246e-06
5.89319e-06
5.89393e-06
5.89467e-06
5.89542e-06
5.89618e-06
5.89694e-06
5.89771e-06
5.89848e-06
5.89926e-06
5.90005e-06
5.90084e-06
5.90164e-06
5.90245e-06
5.90327e-06
5.90409e-06
5.90492e-06
5.90576e-06
5.9066e-06
5.90745e-06
5.90831e-06
5.90918e-06
5.91005e-06
5.91093e-06
5.91181e-06
5.91271e-06
5.9136e-06
5.91455e-06
5.91532e-06
5.91682e-06
5.86722e-06
5.86785e-06
5.86844e-06
5.86898e-06
5.86947e-06
5.86991e-06
5.87031e-06
5.87069e-06
5.87105e-06
5.87141e-06
5.87175e-06
5.8721e-06
5.87245e-06
5.87279e-06
5.87314e-06
5.87349e-06
5.87383e-06
5.87417e-06
5.87448e-06
5.8748e-06
5.87515e-06
5.87552e-06
5.8759e-06
5.87628e-06
5.87666e-06
5.87705e-06
5.87745e-06
5.87784e-06
5.87824e-06
5.87864e-06
5.87905e-06
5.87946e-06
5.87988e-06
5.8803e-06
5.8807e-06
5.88106e-06
5.88139e-06
5.88172e-06
5.88206e-06
5.88242e-06
5.8828e-06
5.8832e-06
5.88362e-06
5.88406e-06
5.88452e-06
5.88498e-06
5.88545e-06
5.88593e-06
5.88641e-06
5.88689e-06
5.88738e-06
5.88787e-06
5.88837e-06
5.88888e-06
5.88939e-06
5.8899e-06
5.89042e-06
5.89095e-06
5.89148e-06
5.89202e-06
5.89256e-06
5.89311e-06
5.89366e-06
5.89422e-06
5.89478e-06
5.89534e-06
5.89593e-06
5.89642e-06
5.89737e-06
5.86852e-06
5.86888e-06
5.86927e-06
5.86965e-06
5.87002e-06
5.87039e-06
5.87075e-06
5.87111e-06
5.87147e-06
5.87183e-06
5.8722e-06
5.87257e-06
5.87294e-06
5.87331e-06
5.87368e-06
5.87404e-06
5.8744e-06
5.87475e-06
5.87508e-06
5.8754e-06
5.87572e-06
5.87607e-06
5.87644e-06
5.87685e-06
5.87728e-06
5.87772e-06
5.87816e-06
5.87861e-06
5.87907e-06
5.87953e-06
5.88e-06
5.88047e-06
5.88094e-06
5.88142e-06
5.88187e-06
5.88228e-06
5.88267e-06
5.88303e-06
5.88339e-06
5.88376e-06
5.88414e-06
5.88454e-06
5.88496e-06
5.8854e-06
5.88586e-06
5.88633e-06
5.88682e-06
5.88732e-06
5.88784e-06
5.88838e-06
5.88893e-06
5.8895e-06
5.89008e-06
5.89068e-06
5.89128e-06
5.89188e-06
5.89249e-06
5.89311e-06
5.89373e-06
5.89436e-06
5.895e-06
5.89564e-06
5.89629e-06
5.89695e-06
5.89761e-06
5.89828e-06
5.89898e-06
5.89956e-06
5.90068e-06
5.86962e-06
5.87002e-06
5.87043e-06
5.87085e-06
5.87127e-06
5.8717e-06
5.87213e-06
5.87256e-06
5.873e-06
5.87343e-06
5.87387e-06
5.8743e-06
5.87474e-06
5.87517e-06
5.8756e-06
5.87603e-06
5.87645e-06
5.87687e-06
5.87727e-06
5.87767e-06
5.87805e-06
5.87842e-06
5.8788e-06
5.87919e-06
5.8796e-06
5.88003e-06
5.8805e-06
5.88099e-06
5.88149e-06
5.882e-06
5.88252e-06
5.88305e-06
5.88358e-06
5.88412e-06
5.88465e-06
5.8852e-06
5.88574e-06
5.8863e-06
5.88685e-06
5.88742e-06
5.88799e-06
5.88857e-06
5.88916e-06
5.88975e-06
5.89035e-06
5.89096e-06
5.89157e-06
5.89219e-06
5.89282e-06
5.89345e-06
5.89409e-06
5.89473e-06
5.89538e-06
5.89604e-06
5.8967e-06
5.89737e-06
5.89805e-06
5.89873e-06
5.89942e-06
5.90012e-06
5.90082e-06
5.90153e-06
5.90225e-06
5.90298e-06
5.90371e-06
5.90445e-06
5.90522e-06
5.90585e-06
5.90708e-06
5.86972e-06
5.87008e-06
5.87044e-06
5.87081e-06
5.87118e-06
5.87155e-06
5.87193e-06
5.87231e-06
5.8727e-06
5.87309e-06
5.87348e-06
5.87388e-06
5.87429e-06
5.8747e-06
5.87511e-06
5.87552e-06
5.87593e-06
5.87634e-06
5.87674e-06
5.87713e-06
5.87751e-06
5.87787e-06
5.87822e-06
5.87857e-06
5.87894e-06
5.87932e-06
5.87972e-06
5.88014e-06
5.88058e-06
5.88105e-06
5.88153e-06
5.88203e-06
5.88253e-06
5.88303e-06
5.88354e-06
5.88406e-06
5.88458e-06
5.8851e-06
5.88564e-06
5.88617e-06
5.88672e-06
5.88726e-06
5.88782e-06
5.88838e-06
5.88894e-06
5.88951e-06
5.89009e-06
5.89067e-06
5.89126e-06
5.89186e-06
5.89246e-06
5.89307e-06
5.89368e-06
5.8943e-06
5.89492e-06
5.89556e-06
5.89619e-06
5.89684e-06
5.89749e-06
5.89815e-06
5.89881e-06
5.89949e-06
5.90016e-06
5.90085e-06
5.90154e-06
5.90224e-06
5.90297e-06
5.90357e-06
5.90474e-06
5.86936e-06
5.86974e-06
5.87011e-06
5.87049e-06
5.87088e-06
5.87126e-06
5.87165e-06
5.87205e-06
5.87244e-06
5.87285e-06
5.87325e-06
5.87366e-06
5.87408e-06
5.8745e-06
5.87493e-06
5.87536e-06
5.87579e-06
5.87623e-06
5.87666e-06
5.8771e-06
5.87753e-06
5.87795e-06
5.87837e-06
5.87878e-06
5.87919e-06
5.87958e-06
5.87997e-06
5.88037e-06
5.88078e-06
5.8812e-06
5.88163e-06
5.88208e-06
5.88254e-06
5.88302e-06
5.88351e-06
5.88402e-06
5.88455e-06
5.88508e-06
5.88563e-06
5.88617e-06
5.88673e-06
5.88729e-06
5.88785e-06
5.88842e-06
5.889e-06
5.88958e-06
5.89017e-06
5.89077e-06
5.89137e-06
5.89197e-06
5.89259e-06
5.8932e-06
5.89383e-06
5.89446e-06
5.8951e-06
5.89574e-06
5.89639e-06
5.89705e-06
5.89771e-06
5.89838e-06
5.89906e-06
5.89974e-06
5.90044e-06
5.90113e-06
5.90184e-06
5.90254e-06
5.90329e-06
5.9039e-06
5.90509e-06
5.86852e-06
5.86887e-06
5.86922e-06
5.86957e-06
5.86993e-06
5.8703e-06
5.87066e-06
5.87103e-06
5.87141e-06
5.87178e-06
5.87216e-06
5.87255e-06
5.87294e-06
5.87333e-06
5.87373e-06
5.87413e-06
5.87454e-06
5.87495e-06
5.87536e-06
5.87578e-06
5.8762e-06
5.87662e-06
5.87703e-06
5.87744e-06
5.87784e-06
5.87823e-06
5.87861e-06
5.87899e-06
5.87938e-06
5.87977e-06
5.88018e-06
5.88059e-06
5.88102e-06
5.88146e-06
5.88191e-06
5.88237e-06
5.88285e-06
5.88335e-06
5.88386e-06
5.88437e-06
5.88489e-06
5.88541e-06
5.88595e-06
5.88648e-06
5.88702e-06
5.88757e-06
5.88812e-06
5.88868e-06
5.88924e-06
5.88981e-06
5.89038e-06
5.89097e-06
5.89155e-06
5.89214e-06
5.89274e-06
5.89335e-06
5.89396e-06
5.89458e-06
5.8952e-06
5.89583e-06
5.89646e-06
5.89711e-06
5.89776e-06
5.89841e-06
5.89907e-06
5.89974e-06
5.90044e-06
5.90102e-06
5.90213e-06
5.86708e-06
5.86743e-06
5.8678e-06
5.86816e-06
5.86852e-06
5.86888e-06
5.86923e-06
5.8696e-06
5.86996e-06
5.87033e-06
5.8707e-06
5.87107e-06
5.87145e-06
5.87184e-06
5.87222e-06
5.87261e-06
5.87301e-06
5.8734e-06
5.87381e-06
5.87422e-06
5.87463e-06
5.87504e-06
5.87546e-06
5.87588e-06
5.8763e-06
5.87672e-06
5.87713e-06
5.87755e-06
5.87796e-06
5.87837e-06
5.87877e-06
5.87917e-06
5.87957e-06
5.87998e-06
5.88039e-06
5.88081e-06
5.88124e-06
5.88168e-06
5.88213e-06
5.88258e-06
5.88304e-06
5.88352e-06
5.884e-06
5.8845e-06
5.885e-06
5.88551e-06
5.88604e-06
5.88657e-06
5.88711e-06
5.88766e-06
5.88822e-06
5.88878e-06
5.88935e-06
5.88993e-06
5.8905e-06
5.89109e-06
5.89168e-06
5.89228e-06
5.89288e-06
5.89349e-06
5.89411e-06
5.89473e-06
5.89536e-06
5.89599e-06
5.89663e-06
5.89727e-06
5.89795e-06
5.89851e-06
5.89959e-06
5.86515e-06
5.86546e-06
5.86578e-06
5.86609e-06
5.86641e-06
5.86674e-06
5.86706e-06
5.86739e-06
5.86772e-06
5.86806e-06
5.8684e-06
5.86874e-06
5.86909e-06
5.86943e-06
5.86979e-06
5.87014e-06
5.8705e-06
5.87086e-06
5.87123e-06
5.8716e-06
5.87198e-06
5.87235e-06
5.87273e-06
5.87312e-06
5.87351e-06
5.8739e-06
5.87429e-06
5.87469e-06
5.87508e-06
5.87547e-06
5.87585e-06
5.87623e-06
5.87661e-06
5.87699e-06
5.87737e-06
5.87776e-06
5.87815e-06
5.87855e-06
5.87896e-06
5.87938e-06
5.8798e-06
5.88023e-06
5.88067e-06
5.88112e-06
5.88159e-06
5.88206e-06
5.88254e-06
5.88303e-06
5.88353e-06
5.88403e-06
5.88453e-06
5.88504e-06
5.88556e-06
5.88608e-06
5.88661e-06
5.88714e-06
5.88767e-06
5.88822e-06
5.88876e-06
5.88932e-06
5.88988e-06
5.89044e-06
5.89101e-06
5.89159e-06
5.89217e-06
5.89275e-06
5.89336e-06
5.89387e-06
5.89486e-06
5.86268e-06
5.86297e-06
5.86326e-06
5.86355e-06
5.86386e-06
5.8642e-06
5.86454e-06
5.86487e-06
5.8652e-06
5.86552e-06
5.86584e-06
5.86616e-06
5.86647e-06
5.8668e-06
5.86712e-06
5.86744e-06
5.86777e-06
5.86811e-06
5.86844e-06
5.86878e-06
5.86912e-06
5.86947e-06
5.86982e-06
5.87017e-06
5.87053e-06
5.87089e-06
5.87125e-06
5.87162e-06
5.87199e-06
5.87236e-06
5.87274e-06
5.87311e-06
5.87349e-06
5.87387e-06
5.87425e-06
5.87464e-06
5.87502e-06
5.8754e-06
5.87578e-06
5.87616e-06
5.87654e-06
5.87693e-06
5.87732e-06
5.87771e-06
5.87811e-06
5.87852e-06
5.87893e-06
5.87935e-06
5.87977e-06
5.8802e-06
5.88063e-06
5.88108e-06
5.88152e-06
5.88198e-06
5.88244e-06
5.88291e-06
5.88338e-06
5.88386e-06
5.88434e-06
5.88484e-06
5.88533e-06
5.88584e-06
5.88635e-06
5.88686e-06
5.88738e-06
5.88791e-06
5.88846e-06
5.88892e-06
5.88981e-06
5.85993e-06
5.86018e-06
5.86043e-06
5.86068e-06
5.86094e-06
5.86119e-06
5.86145e-06
5.86172e-06
5.86198e-06
5.86225e-06
5.86252e-06
5.86279e-06
5.86306e-06
5.86334e-06
5.86362e-06
5.8639e-06
5.86419e-06
5.86448e-06
5.86477e-06
5.86506e-06
5.86536e-06
5.86566e-06
5.86596e-06
5.86627e-06
5.86658e-06
5.86689e-06
5.8672e-06
5.86752e-06
5.86784e-06
5.86816e-06
5.86849e-06
5.86882e-06
5.86915e-06
5.86949e-06
5.86983e-06
5.87017e-06
5.87051e-06
5.87085e-06
5.87119e-06
5.87153e-06
5.87187e-06
5.87221e-06
5.87255e-06
5.8729e-06
5.87325e-06
5.8736e-06
5.87396e-06
5.87433e-06
5.87469e-06
5.87507e-06
5.87545e-06
5.87584e-06
5.87623e-06
5.87663e-06
5.87703e-06
5.87744e-06
5.87786e-06
5.87828e-06
5.87871e-06
5.87915e-06
5.87959e-06
5.88003e-06
5.88048e-06
5.88093e-06
5.88139e-06
5.88185e-06
5.88233e-06
5.88273e-06
5.8835e-06
5.85676e-06
5.85697e-06
5.85718e-06
5.8574e-06
5.85762e-06
5.85783e-06
5.85806e-06
5.8583e-06
5.85856e-06
5.85882e-06
5.85908e-06
5.85933e-06
5.85957e-06
5.85981e-06
5.86005e-06
5.86029e-06
5.86053e-06
5.86077e-06
5.86102e-06
5.86127e-06
5.86152e-06
5.86178e-06
5.86203e-06
5.86229e-06
5.86255e-06
5.86282e-06
5.86309e-06
5.86336e-06
5.86363e-06
5.8639e-06
5.86418e-06
5.86446e-06
5.86474e-06
5.86503e-06
5.86532e-06
5.86561e-06
5.8659e-06
5.8662e-06
5.8665e-06
5.8668e-06
5.86711e-06
5.86742e-06
5.86773e-06
5.86805e-06
5.86836e-06
5.86869e-06
5.86901e-06
5.86934e-06
5.86967e-06
5.87e-06
5.87034e-06
5.87068e-06
5.87102e-06
5.87137e-06
5.87171e-06
5.87206e-06
5.87241e-06
5.87277e-06
5.87312e-06
5.87348e-06
5.87384e-06
5.87421e-06
5.87458e-06
5.87495e-06
5.87533e-06
5.87572e-06
5.87612e-06
5.87646e-06
5.87711e-06
5.85375e-06
5.85392e-06
5.85409e-06
5.85426e-06
5.85443e-06
5.8546e-06
5.85478e-06
5.85495e-06
5.85513e-06
5.85531e-06
5.85549e-06
5.85568e-06
5.85586e-06
5.85605e-06
5.85624e-06
5.85643e-06
5.85662e-06
5.85681e-06
5.85701e-06
5.8572e-06
5.8574e-06
5.8576e-06
5.85781e-06
5.85801e-06
5.85822e-06
5.85843e-06
5.85864e-06
5.85885e-06
5.85907e-06
5.85929e-06
5.8595e-06
5.85973e-06
5.85995e-06
5.86018e-06
5.8604e-06
5.86063e-06
5.86087e-06
5.8611e-06
5.86134e-06
5.86158e-06
5.86182e-06
5.86206e-06
5.86231e-06
5.86256e-06
5.86281e-06
5.86306e-06
5.86332e-06
5.86358e-06
5.86384e-06
5.86411e-06
5.86437e-06
5.86464e-06
5.86491e-06
5.86519e-06
5.86547e-06
5.86575e-06
5.86603e-06
5.86631e-06
5.8666e-06
5.86689e-06
5.86718e-06
5.86747e-06
5.86777e-06
5.86807e-06
5.86837e-06
5.86868e-06
5.869e-06
5.86926e-06
5.86978e-06
5.84973e-06
5.84985e-06
5.84997e-06
5.8501e-06
5.85022e-06
5.85035e-06
5.85047e-06
5.8506e-06
5.85074e-06
5.85087e-06
5.851e-06
5.85113e-06
5.85127e-06
5.85141e-06
5.85154e-06
5.85168e-06
5.85182e-06
5.85197e-06
5.85211e-06
5.85225e-06
5.8524e-06
5.85254e-06
5.85269e-06
5.85284e-06
5.85299e-06
5.85314e-06
5.8533e-06
5.85345e-06
5.85361e-06
5.85377e-06
5.85392e-06
5.85408e-06
5.85425e-06
5.85441e-06
5.85457e-06
5.85474e-06
5.85491e-06
5.85507e-06
5.85524e-06
5.85542e-06
5.85559e-06
5.85576e-06
5.85594e-06
5.85612e-06
5.8563e-06
5.85648e-06
5.85666e-06
5.85684e-06
5.85703e-06
5.85721e-06
5.8574e-06
5.85759e-06
5.85778e-06
5.85798e-06
5.85817e-06
5.85837e-06
5.85857e-06
5.85877e-06
5.85897e-06
5.85917e-06
5.85938e-06
5.85958e-06
5.85979e-06
5.86e-06
5.86021e-06
5.86043e-06
5.86065e-06
5.86083e-06
5.86119e-06
5.84198e-06
5.84205e-06
5.84213e-06
5.84221e-06
5.84229e-06
5.84236e-06
5.84244e-06
5.84251e-06
5.84259e-06
5.84266e-06
5.84273e-06
5.8428e-06
5.84286e-06
5.84292e-06
5.84296e-06
5.843e-06
5.84304e-06
5.84306e-06
5.84309e-06
5.8431e-06
5.84312e-06
5.84313e-06
5.84313e-06
5.84314e-06
5.84314e-06
5.84314e-06
5.84314e-06
5.84315e-06
5.84315e-06
5.84316e-06
5.84317e-06
5.84319e-06
5.8432e-06
5.84321e-06
5.84323e-06
5.84325e-06
5.84326e-06
5.84328e-06
5.8433e-06
5.84332e-06
5.84334e-06
5.84336e-06
5.84337e-06
5.84339e-06
5.84341e-06
5.84343e-06
5.84345e-06
5.84347e-06
5.84349e-06
5.8435e-06
5.84352e-06
5.84354e-06
5.84355e-06
5.84357e-06
5.84358e-06
5.8436e-06
5.84361e-06
5.84363e-06
5.84364e-06
5.84365e-06
5.84366e-06
5.84367e-06
5.84368e-06
5.84369e-06
5.8437e-06
5.84371e-06
5.84372e-06
5.84373e-06
5.84373e-06
5.84088e-06
5.84256e-06
5.84407e-06
5.84543e-06
5.84665e-06
5.84774e-06
5.84872e-06
5.8496e-06
5.85038e-06
5.85109e-06
5.85172e-06
5.85229e-06
5.85279e-06
5.85329e-06
5.85361e-06
5.84091e-06
5.84264e-06
5.8442e-06
5.8456e-06
5.84686e-06
5.84798e-06
5.84899e-06
5.8499e-06
5.85072e-06
5.85145e-06
5.85211e-06
5.8527e-06
5.85322e-06
5.85371e-06
5.85411e-06
5.84093e-06
5.8427e-06
5.84429e-06
5.84572e-06
5.84701e-06
5.84816e-06
5.8492e-06
5.85013e-06
5.85097e-06
5.85172e-06
5.8524e-06
5.85301e-06
5.85356e-06
5.85406e-06
5.85448e-06
5.84093e-06
5.84272e-06
5.84433e-06
5.84578e-06
5.84708e-06
5.84825e-06
5.8493e-06
5.85025e-06
5.8511e-06
5.85186e-06
5.85255e-06
5.85317e-06
5.85373e-06
5.85424e-06
5.85468e-06
5.84094e-06
5.84272e-06
5.84433e-06
5.84577e-06
5.84707e-06
5.84824e-06
5.84929e-06
5.85024e-06
5.85109e-06
5.85186e-06
5.85255e-06
5.85317e-06
5.85373e-06
5.85424e-06
5.85469e-06
5.84092e-06
5.84267e-06
5.84425e-06
5.84567e-06
5.84695e-06
5.8481e-06
5.84914e-06
5.85007e-06
5.85091e-06
5.85167e-06
5.85235e-06
5.85297e-06
5.85352e-06
5.85403e-06
5.85447e-06
5.84089e-06
5.84258e-06
5.84411e-06
5.84548e-06
5.84672e-06
5.84783e-06
5.84883e-06
5.84974e-06
5.85055e-06
5.85129e-06
5.85195e-06
5.85254e-06
5.85308e-06
5.85357e-06
5.854e-06
5.84084e-06
5.84245e-06
5.84389e-06
5.84519e-06
5.84636e-06
5.84742e-06
5.84837e-06
5.84922e-06
5.85e-06
5.85069e-06
5.85132e-06
5.85189e-06
5.8524e-06
5.85286e-06
5.85327e-06
5.84078e-06
5.84226e-06
5.8436e-06
5.8448e-06
5.84589e-06
5.84687e-06
5.84775e-06
5.84854e-06
5.84926e-06
5.8499e-06
5.85049e-06
5.85101e-06
5.85148e-06
5.85191e-06
5.85229e-06
5.8407e-06
5.84204e-06
5.84324e-06
5.84433e-06
5.84531e-06
5.84619e-06
5.84699e-06
5.8477e-06
5.84835e-06
5.84893e-06
5.84946e-06
5.84993e-06
5.85035e-06
5.85074e-06
5.85108e-06
5.84061e-06
5.84178e-06
5.84284e-06
5.84378e-06
5.84464e-06
5.84541e-06
5.8461e-06
5.84673e-06
5.8473e-06
5.84781e-06
5.84826e-06
5.84868e-06
5.84905e-06
5.84939e-06
5.84969e-06
5.84052e-06
5.8415e-06
5.84238e-06
5.84318e-06
5.84389e-06
5.84454e-06
5.84513e-06
5.84565e-06
5.84613e-06
5.84655e-06
5.84694e-06
5.84728e-06
5.8476e-06
5.84788e-06
5.84813e-06
5.84041e-06
5.84119e-06
5.84189e-06
5.84252e-06
5.84309e-06
5.8436e-06
5.84406e-06
5.84448e-06
5.84486e-06
5.8452e-06
5.8455e-06
5.84578e-06
5.84602e-06
5.84625e-06
5.84645e-06
5.84029e-06
5.84084e-06
5.84134e-06
5.84179e-06
5.8422e-06
5.84257e-06
5.8429e-06
5.8432e-06
5.84347e-06
5.84371e-06
5.84393e-06
5.84413e-06
5.8443e-06
5.84446e-06
5.84461e-06
5.84011e-06
5.84033e-06
5.84052e-06
5.8407e-06
5.84084e-06
5.84093e-06
5.84099e-06
5.84102e-06
5.84103e-06
5.84104e-06
5.84104e-06
5.84104e-06
5.84105e-06
5.84105e-06
5.84106e-06
5.85392e-06
5.85415e-06
5.85437e-06
5.85459e-06
5.85479e-06
5.85493e-06
5.85504e-06
5.85511e-06
5.85516e-06
5.85519e-06
5.85523e-06
5.85528e-06
5.85534e-06
5.85544e-06
5.85557e-06
5.85574e-06
5.85595e-06
5.85619e-06
5.85648e-06
5.8568e-06
5.85715e-06
5.85752e-06
5.8579e-06
5.85832e-06
5.85871e-06
5.85922e-06
5.85967e-06
5.85999e-06
5.86025e-06
5.86049e-06
5.86072e-06
5.86095e-06
5.86117e-06
5.8614e-06
5.86163e-06
5.86185e-06
5.86209e-06
5.86232e-06
5.86256e-06
5.86281e-06
5.86306e-06
5.86333e-06
5.8636e-06
5.86388e-06
5.86417e-06
5.8645e-06
5.86475e-06
5.86525e-06
5.86542e-06
5.86619e-06
5.85446e-06
5.85476e-06
5.85505e-06
5.85534e-06
5.85563e-06
5.85593e-06
5.85622e-06
5.85652e-06
5.85681e-06
5.85711e-06
5.8574e-06
5.85768e-06
5.85796e-06
5.85822e-06
5.85848e-06
5.85873e-06
5.85897e-06
5.85919e-06
5.85942e-06
5.85963e-06
5.85984e-06
5.86005e-06
5.86025e-06
5.86046e-06
5.86066e-06
5.86087e-06
5.86108e-06
5.86129e-06
5.86151e-06
5.86172e-06
5.86193e-06
5.86214e-06
5.86235e-06
5.86257e-06
5.86278e-06
5.86299e-06
5.8632e-06
5.86341e-06
5.86361e-06
5.86382e-06
5.86402e-06
5.86422e-06
5.86442e-06
5.86462e-06
5.8648e-06
5.86502e-06
5.8653e-06
5.8657e-06
5.86614e-06
5.86664e-06
5.85485e-06
5.85515e-06
5.85544e-06
5.85574e-06
5.85603e-06
5.85633e-06
5.85662e-06
5.85691e-06
5.8572e-06
5.85749e-06
5.85778e-06
5.85806e-06
5.85835e-06
5.85864e-06
5.85893e-06
5.85922e-06
5.85951e-06
5.8598e-06
5.86009e-06
5.86038e-06
5.86067e-06
5.86096e-06
5.86124e-06
5.86152e-06
5.8618e-06
5.86209e-06
5.86233e-06
5.8627e-06
5.86302e-06
5.86331e-06
5.86358e-06
5.86384e-06
5.8641e-06
5.86436e-06
5.86462e-06
5.86488e-06
5.86513e-06
5.86539e-06
5.86564e-06
5.86589e-06
5.86613e-06
5.86638e-06
5.86662e-06
5.86686e-06
5.8671e-06
5.86733e-06
5.86756e-06
5.86778e-06
5.868e-06
5.86823e-06
5.85505e-06
5.85535e-06
5.85565e-06
5.85595e-06
5.85624e-06
5.85654e-06
5.85684e-06
5.85714e-06
5.85743e-06
5.85773e-06
5.85803e-06
5.85832e-06
5.85862e-06
5.85892e-06
5.85921e-06
5.8595e-06
5.85979e-06
5.86009e-06
5.86038e-06
5.86066e-06
5.86095e-06
5.86124e-06
5.86153e-06
5.86181e-06
5.8621e-06
5.86238e-06
5.86267e-06
5.86295e-06
5.86324e-06
5.86352e-06
5.86381e-06
5.86409e-06
5.86438e-06
5.86466e-06
5.86494e-06
5.86523e-06
5.86551e-06
5.86579e-06
5.86608e-06
5.86636e-06
5.86664e-06
5.86692e-06
5.8672e-06
5.86748e-06
5.86776e-06
5.86804e-06
5.86831e-06
5.86863e-06
5.86895e-06
5.86926e-06
5.85506e-06
5.85535e-06
5.85565e-06
5.85595e-06
5.85624e-06
5.85654e-06
5.85683e-06
5.85712e-06
5.85742e-06
5.85771e-06
5.858e-06
5.8583e-06
5.85859e-06
5.85888e-06