/*--------------------------------*- C++ -*----------------------------------*\
| =========                 |                                                 |
| \\      /  F ield         | OpenFOAM: The Open Source CFD Toolbox           |
|  \\    /   O peration     | Version:  2412                                  |
|   \\  /    A nd           | Website:  www.openfoam.com                      |
|    \\/     M anipulation  |                                                 |
\*---------------------------------------------------------------------------*/
FoamFile
{
    version     2.0;
    format      ascii;
    arch        "LSB;label=32;scalar=64";
    class       volScalarField;
    location    "1500";
    object      p;
}
// * * * * * * * * * * * * * * * * * * * * * * * * * * * * * * * * * * * * * //

dimensions      [0 2 -2 0 0 0 0];

internalField   nonuniform List<scalar> 
14620
(
0.603833
0.607476
0.615904
0.62657
0.637102
0.646163
0.652787
0.656046
0.655167
0.649672
0.639403
0.624541
0.605574
0.583657
0.559745
0.582157
0.584692
0.590456
0.597347
0.603344
0.607244
0.608209
0.605521
0.598652
0.587362
0.571689
0.551868
0.528266
0.501121
0.470775
0.557572
0.558968
0.562011
0.565102
0.566631
0.565572
0.561247
0.553157
0.541015
0.524799
0.504737
0.481254
0.454949
0.42651
0.396787
0.529971
0.530237
0.530576
0.529941
0.527188
0.521512
0.512423
0.499658
0.483174
0.463155
0.439974
0.414135
0.386215
0.35676
0.326384
0.499361
0.498531
0.496289
0.492156
0.485496
0.475761
0.462666
0.44618
0.426477
0.40391
0.378968
0.352224
0.324299
0.295767
0.267251
0.465877
0.464051
0.459457
0.452207
0.442187
0.429121
0.412924
0.393765
0.371994
0.348065
0.322506
0.295862
0.268674
0.241397
0.214526
0.429843
0.427159
0.420558
0.410716
0.39803
0.382491
0.36419
0.343456
0.32076
0.296617
0.27156
0.246098
0.220713
0.195781
0.171695
0.391781
0.388417
0.380247
0.368452
0.35389
0.336799
0.31741
0.296163
0.273589
0.250201
0.226476
0.202832
0.179641
0.157169
0.135704
0.352423
0.348587
0.339345
0.326293
0.310677
0.292926
0.27336
0.252466
0.230789
0.208817
0.186969
0.165592
0.144976
0.125306
0.106781
0.312708
0.308614
0.298799
0.285177
0.2693
0.251753
0.232912
0.213269
0.193327
0.173499
0.154105
0.135387
0.117534
0.100656
0.0848738
0.273757
0.269603
0.259661
0.246025
0.230423
0.213516
0.195691
0.177421
0.159179
0.141332
0.124145
0.107802
0.0924338
0.0780971
0.0648538
0.236853
0.232776
0.223063
0.210009
0.195485
0.180162
0.164357
0.14845
0.132811
0.117703
0.10329
0.0896773
0.0769343
0.0650852
0.0541549
0.203471
0.199463
0.189707
0.176674
0.162436
0.147728
0.132851
0.11815
0.103962
0.0905143
0.077926
0.0662536
0.0555156
0.0456924
0.0367645
0.175409
0.171796
0.163055
0.151641
0.139389
0.126938
0.114512
0.102341
0.0906419
0.0795542
0.0691484
0.0594604
0.050497
0.0422682
0.0347169
0.154982
0.147215
0.134758
0.121211
0.107843
0.0948946
0.082516
0.0709095
0.0602106
0.0504552
0.0416196
0.0336559
0.0265047
0.0200989
0.0143718
0.539405
0.512352
0.481031
0.448148
0.412455
0.372804
0.329058
0.281344
0.229641
0.173846
0.113965
0.0501414
-0.0174087
-0.0884029
-0.162475
-0.239166
-0.317932
-0.398149
-0.479135
-0.560108
-0.640253
-0.718782
-0.79499
-0.868118
-0.937424
-1.00223
-1.06209
-1.11627
-1.16432
-1.20609
-1.24145
-1.27026
-1.29247
-1.30814
-1.31737
-1.32037
-1.31739
-1.30871
-1.29469
-1.2757
-1.25216
-1.22449
-1.19315
-1.15861
-1.12134
-1.08177
-1.04065
-0.998568
-0.956113
-0.913191
0.440105
0.408405
0.375225
0.341406
0.305429
0.266319
0.224145
0.179149
0.131386
0.0808751
0.0277101
-0.0279635
-0.0859484
-0.145987
-0.207769
-0.270939
-0.335097
-0.399803
-0.464589
-0.528964
-0.592431
-0.65449
-0.71463
-0.772352
-0.827133
-0.878567
-0.925949
-0.969505
-1.0097
-1.0453
-1.07594
-1.10176
-1.1228
-1.13903
-1.15046
-1.1572
-1.15936
-1.15713
-1.15069
-1.14026
-1.12609
-1.10845
-1.08759
-1.06379
-1.03734
-1.0085
-0.977475
-0.944713
-0.909603
-0.87337
0.36952
0.343096
0.314869
0.28526
0.253599
0.219546
0.183181
0.144623
0.103898
0.0610242
0.0160648
-0.0308547
-0.0795479
-0.129799
-0.181371
-0.233998
-0.287379
-0.341181
-0.39505
-0.448611
-0.501475
-0.553249
-0.60354
-0.651971
-0.698183
-0.741844
-0.782661
-0.820377
-0.854759
-0.885487
-0.912408
-0.935466
-0.954611
-0.96981
-0.98107
-0.988443
-0.992019
-0.991917
-0.988284
-0.981295
-0.971146
-0.958054
-0.942252
-0.923993
-0.90352
-0.881146
-0.856902
-0.830908
-0.80359
-0.77513
0.29863
0.272549
0.244903
0.216091
0.185741
0.153663
0.11993
0.084651
0.0478983
0.00974529
-0.0296991
-0.0702915
-0.111877
-0.1543
-0.197385
-0.240926
-0.284698
-0.328463
-0.371973
-0.414973
-0.457203
-0.498404
-0.538323
-0.576714
-0.613341
-0.647994
-0.680447
-0.710587
-0.737835
-0.762639
-0.78488
-0.804299
-0.820796
-0.83438
-0.845068
-0.852879
-0.857854
-0.860058
-0.859576
-0.856509
-0.85097
-0.843087
-0.832993
-0.820831
-0.806747
-0.790889
-0.773399
-0.754405
-0.734097
-0.712485
0.241966
0.218887
0.19475
0.169832
0.143839
0.116632
0.0882743
0.0588501
0.0284099
-0.00299859
-0.0353067
-0.0684264
-0.102259
-0.136685
-0.171565
-0.206744
-0.242061
-0.27735
-0.312433
-0.347127
-0.381247
-0.414604
-0.447014
-0.478296
-0.508274
-0.536785
-0.563673
-0.588802
-0.612051
-0.633329
-0.652531
-0.669563
-0.684372
-0.696932
-0.707229
-0.715264
-0.721056
-0.72464
-0.72607
-0.725411
-0.722742
-0.718154
-0.711747
-0.703629
-0.693916
-0.682728
-0.670185
-0.656398
-0.641359
-0.625344
0.190958
0.169946
0.148128
0.125664
0.102366
0.0781736
0.0531571
0.0273976
0.000951394
-0.0261239
-0.0537542
-0.0818522
-0.110322
-0.139059
-0.167957
-0.196907
-0.225794
-0.254498
-0.282892
-0.310849
-0.338241
-0.364943
-0.390829
-0.415781
-0.439684
-0.462429
-0.483916
-0.504056
-0.522764
-0.539969
-0.555619
-0.569669
-0.582083
-0.592833
-0.601909
-0.609308
-0.615041
-0.619127
-0.621597
-0.62249
-0.62185
-0.619734
-0.616201
-0.611317
-0.605153
-0.597784
-0.589288
-0.579738
-0.569233
-0.557776
0.150931
0.132778
0.114093
0.0949878
0.0753488
0.0551439
0.0344267
0.0132549
-0.00833071
-0.0302895
-0.0525713
-0.075119
-0.0978712
-0.120763
-0.143725
-0.166683
-0.189555
-0.212256
-0.234702
-0.256807
-0.278486
-0.299651
-0.320218
-0.340104
-0.35923
-0.377518
-0.394899
-0.411304
-0.426675
-0.440958
-0.454107
-0.466081
-0.476848
-0.486384
-0.494672
-0.501704
-0.507479
-0.512005
-0.515295
-0.517371
-0.51826
-0.517995
-0.516616
-0.514165
-0.510692
-0.506247
-0.500889
-0.49466
-0.487662
-0.479766
0.11738
0.101611
0.0854703
0.0690158
0.0521802
0.0349564
0.0173887
-0.000477822
-0.018608
-0.0369653
-0.0555069
-0.074185
-0.0929491
-0.111746
-0.13052
-0.149214
-0.167767
-0.186124
-0.204224
-0.222008
-0.239416
-0.256388
-0.272866
-0.288795
-0.304121
-0.318793
-0.332764
-0.34599
-0.358432
-0.370055
-0.380826
-0.390722
-0.39972
-0.407805
-0.414965
-0.421195
-0.426493
-0.430863
-0.434312
-0.436854
-0.438504
-0.439282
-0.439213
-0.438322
-0.436641
-0.434203
-0.431043
-0.427192
-0.422709
-0.417557
0.0911646
0.0779327
0.0644734
0.0508119
0.0369198
0.0228046
0.00849884
-0.0059668
-0.0205667
-0.0352742
-0.0500594
-0.0648902
-0.0797332
-0.0945539
-0.109317
-0.123985
-0.138522
-0.152888
-0.167043
-0.180948
-0.194563
-0.207851
-0.220773
-0.233292
-0.245374
-0.256984
-0.268091
-0.278664
-0.288676
-0.298102
-0.30692
-0.315111
-0.322657
-0.329546
-0.335767
-0.341314
-0.346181
-0.35037
-0.353881
-0.356719
-0.358892
-0.36041
-0.361288
-0.361541
-0.361187
-0.360245
-0.358739
-0.356687
-0.35413
-0.351025
0.0716631
0.0605398
0.0492666
0.0378606
0.026305
0.0146082
0.00279477
-0.00911219
-0.0210928
-0.0331264
-0.04519
-0.0572593
-0.0693091
-0.0813135
-0.0932461
-0.10508
-0.116786
-0.128338
-0.139708
-0.150869
-0.161795
-0.172457
-0.182831
-0.192892
-0.202614
-0.211977
-0.220957
-0.229534
-0.237691
-0.245411
-0.252678
-0.25948
-0.265804
-0.271643
-0.276989
-0.281836
-0.286183
-0.290023
-0.293399
-0.2963
-0.298663
-0.300515
-0.301891
-0.302804
-0.303258
-0.303263
-0.302836
-0.301988
-0.300747
-0.299083
0.0538969
0.0448178
0.0356599
0.0264125
0.0170825
0.00768771
-0.00175522
-0.0112326
-0.0207307
-0.0302344
-0.0397278
-0.0491945
-0.058618
-0.0679814
-0.0772676
-0.0864592
-0.0955388
-0.104489
-0.113292
-0.121931
-0.130388
-0.138646
-0.146689
-0.154501
-0.162066
-0.169369
-0.176398
-0.183137
-0.189577
-0.195704
-0.20151
-0.206985
-0.212121
-0.216911
-0.221349
-0.225432
-0.229157
-0.232518
-0.235535
-0.238225
-0.240559
-0.242513
-0.244086
-0.245307
-0.246193
-0.246747
-0.246975
-0.246883
-0.246491
-0.245771
0.045138
0.0376169
0.0300446
0.0224329
0.014773
0.00706961
-0.000662392
-0.00840871
-0.0161577
-0.0238983
-0.0316192
-0.0393087
-0.0469547
-0.054545
-0.0620671
-0.0695085
-0.0768568
-0.0840992
-0.0912231
-0.0982162
-0.105066
-0.111762
-0.118291
-0.124644
-0.130808
-0.136775
-0.142534
-0.148076
-0.153394
-0.15848
-0.163331
-0.167939
-0.172299
-0.176408
-0.180262
-0.18386
-0.187197
-0.190283
-0.193077
-0.195598
-0.197891
-0.199925
-0.201681
-0.203156
-0.204368
-0.205306
-0.20599
-0.206435
-0.206651
-0.206619
0.0295088
0.0235913
0.01765
0.0116675
0.00566751
-0.000328573
-0.00631372
-0.0122854
-0.0182386
-0.0241664
-0.030061
-0.0359146
-0.0417195
-0.0474686
-0.0531544
-0.0587694
-0.0643059
-0.0697564
-0.0751136
-0.0803701
-0.0855183
-0.0905509
-0.0954608
-0.100241
-0.104885
-0.109386
-0.113738
-0.117935
-0.121973
-0.125846
-0.12955
-0.133081
-0.136438
-0.139618
-0.14262
-0.145442
-0.148082
-0.150542
-0.15281
-0.15487
-0.156744
-0.158448
-0.159984
-0.16133
-0.162478
-0.163431
-0.164193
-0.164772
-0.165185
-0.165418
0.0287369
0.0240469
0.0193458
0.0142744
0.00888141
0.003456
-0.00188258
-0.00710452
-0.0121897
-0.0171951
-0.0221782
-0.0271406
-0.0320637
-0.0369366
-0.0417559
-0.0465175
-0.0512157
-0.0558441
-0.0603968
-0.0648685
-0.069254
-0.0735483
-0.0777462
-0.081843
-0.0858338
-0.0897142
-0.09348
-0.0971271
-0.100652
-0.104048
-0.107311
-0.110438
-0.113426
-0.116272
-0.118972
-0.121525
-0.123926
-0.126174
-0.128265
-0.130198
-0.131985
-0.133633
-0.135139
-0.136509
-0.137737
-0.138838
-0.1398
-0.140613
-0.141281
-0.141805
0.00980928
0.00613133
0.00245718
-0.0012236
-0.00488971
-0.00852695
-0.0121357
-0.0157159
-0.0192658
-0.0227223
-0.0260517
-0.0293319
-0.0326173
-0.0358993
-0.0391505
-0.0423585
-0.0455221
-0.0486402
-0.0517082
-0.0547212
-0.057675
-0.0605665
-0.0633924
-0.0661496
-0.0688351
-0.0714463
-0.0739805
-0.0764354
-0.0788089
-0.0810988
-0.0833036
-0.085421
-0.0874478
-0.0893819
-0.0912216
-0.0929655
-0.0946121
-0.0961598
-0.0976071
-0.0989521
-0.100193
-0.101338
-0.102392
-0.103358
-0.104236
-0.105027
-0.105738
-0.106363
-0.106895
-0.107337
-0.86394
-0.809908
-0.755245
-0.698679
-0.642076
-0.587259
-0.534735
-0.484551
-0.436889
-0.391986
-0.349969
-0.310855
-0.27461
-0.241175
-0.210465
-0.182366
-0.156741
-0.133428
-0.112312
-0.0931634
-0.0760048
-0.0607576
-0.0471732
-0.0350801
-0.0243697
-0.0149227
-0.00662271
0.000631235
0.00693328
0.0123763
0.0170478
0.0210254
0.0243756
0.0271565
0.0293986
0.0311824
0.0326261
0.0337688
0.0346079
0.0351512
0.0354299
0.0354814
0.0353354
0.0350152
0.0345405
0.0339281
0.0331936
0.0323506
0.0314114
0.0303868
0.0292861
0.028116
0.0268833
0.0255921
0.024248
0.0228551
0.021417
0.0199358
0.0184129
0.0168468
0.0152376
0.0135834
0.0118869
0.0101427
0.00835637
0.00650363
0.00465427
0.00266953
0.00111403
-0.827721
-0.772176
-0.718826
-0.668359
-0.619144
-0.570968
-0.524426
-0.479861
-0.437354
-0.396976
-0.358826
-0.322966
-0.289413
-0.258153
-0.229148
-0.202352
-0.177691
-0.155113
-0.134384
-0.115322
-0.0979179
-0.082176
-0.0680132
-0.0553284
-0.0440289
-0.0339319
-0.0249161
-0.0169083
-0.00983057
-0.00359331
0.00188014
0.0066593
0.010799
0.0143927
0.0173287
0.0196656
0.0216875
0.0234691
0.0250022
0.0262124
0.0270921
0.0276877
0.0280467
0.0282012
0.028173
0.0279816
0.0276462
0.0271823
0.0266025
0.0259182
0.0251396
0.0242754
0.0233332
0.0223196
0.0212403
0.0201
0.0189028
0.0176521
0.0163503
0.0149986
0.0135982
0.0121497
0.0106549
0.00911249
0.00752776
0.00588511
0.00423587
0.00244106
0.00104577
-0.741857
-0.701048
-0.660316
-0.620829
-0.581794
-0.542959
-0.504746
-0.46754
-0.431511
-0.396774
-0.363464
-0.331701
-0.301567
-0.27311
-0.246356
-0.221306
-0.197948
-0.17625
-0.156172
-0.137731
-0.120677
-0.104849
-0.0903257
-0.0771419
-0.0652051
-0.0544112
-0.0446713
-0.0359395
-0.0281468
-0.0211715
-0.0149319
-0.00937244
-0.00442534
-9.65681e-05
0.00356822
0.00669514
0.0094616
0.0119073
0.0140429
0.015877
0.0173839
0.0185764
0.0194982
0.0201868
0.0206675
0.0209606
0.0210845
0.0210554
0.0208874
0.0205931
0.0201843
0.0196706
0.0190609
0.0183645
0.0175891
0.0167396
0.0158206
0.0148369
0.0137924
0.01269
0.0115325
0.0103222
0.00906196
0.00775327
0.00640299
0.00500253
0.00357752
0.00203099
0.000844302
-0.686775
-0.655069
-0.621933
-0.588675
-0.555462
-0.522262
-0.489305
-0.456895
-0.42524
-0.394483
-0.364749
-0.336156
-0.308798
-0.282744
-0.258044
-0.234723
-0.212789
-0.192243
-0.173072
-0.155269
-0.138751
-0.12338
-0.109079
-0.0958306
-0.0835997
-0.0724071
-0.0622158
-0.0529592
-0.0445702
-0.0369896
-0.0301796
-0.0240617
-0.0185667
-0.0136576
-0.0093007
-0.00543627
-0.0020054
0.00103607
0.00371719
0.00605496
0.00806115
0.00975939
0.0111818
0.0123567
0.0133059
0.0140485
0.0146022
0.0149839
0.0152085
0.0152897
0.0152402
0.015071
0.0147922
0.0144127
0.0139403
0.0133817
0.0127429
0.0120298
0.0112474
0.0104001
0.00949204
0.00852676
0.00750828
0.00643901
0.00532552
0.00415959
0.00297839
0.00169109
0.000704825
-0.606356
-0.581888
-0.556114
-0.530282
-0.504379
-0.478258
-0.452059
-0.426025
-0.400334
-0.375104
-0.350442
-0.326453
-0.303232
-0.280859
-0.259395
-0.238885
-0.219364
-0.200853
-0.183366
-0.166904
-0.151457
-0.137025
-0.123546
-0.110944
-0.0991903
-0.0882474
-0.0780871
-0.0686849
-0.0600117
-0.0520702
-0.0448306
-0.0382325
-0.0322389
-0.0268009
-0.021908
-0.0175032
-0.0135784
-0.0100669
-0.00691491
-0.00409711
-0.00159812
0.00059923
0.00251571
0.00417271
0.00558998
0.0067858
0.0077775
0.00858144
0.00921281
0.00968552
0.0100125
0.0102056
0.0102753
0.010231
0.0100814
0.00983457
0.00949754
0.00907691
0.00857876
0.00800867
0.00737192
0.00667343
0.00591848
0.00511122
0.00426005
0.00336124
0.00244892
0.00140773
0.000591242
-0.543958
-0.526059
-0.506902
-0.487288
-0.467212
-0.446611
-0.425638
-0.404502
-0.383361
-0.362333
-0.341528
-0.321055
-0.301011
-0.281479
-0.262526
-0.244217
-0.226607
-0.20974
-0.19365
-0.178361
-0.163884
-0.150224
-0.137378
-0.125293
-0.113913
-0.103212
-0.0931687
-0.0837758
-0.075035
-0.0669227
-0.0593884
-0.0524262
-0.0460338
-0.0401825
-0.0348364
-0.0299608
-0.0255279
-0.0215082
-0.0178798
-0.0145974
-0.011633
-0.00897144
-0.00659675
-0.00448968
-0.00263151
-0.00100444
0.000407347
0.00161997
0.00264805
0.00350691
0.00421003
0.00476842
0.00519218
0.00549121
0.00567484
0.00575154
0.00572905
0.00561473
0.00541554
0.00513809
0.00478868
0.00437336
0.00389833
0.00336914
0.00279417
0.00217501
0.00154016
0.000849335
0.000328364
-0.47013
-0.457071
-0.442876
-0.428259
-0.413147
-0.397457
-0.381327
-0.364929
-0.348381
-0.331769
-0.31518
-0.298703
-0.282417
-0.26639
-0.250684
-0.23536
-0.220468
-0.206053
-0.192152
-0.178791
-0.165991
-0.153764
-0.142118
-0.131053
-0.120572
-0.110684
-0.101376
-0.0925993
-0.0843319
-0.0765659
-0.0692863
-0.0624769
-0.0561262
-0.0502384
-0.0447706
-0.039718
-0.0350277
-0.030704
-0.0267464
-0.0231305
-0.0198316
-0.0168296
-0.0141104
-0.0116542
-0.0094489
-0.00747304
-0.00571946
-0.00416608
-0.00280891
-0.00162598
-0.000599771
0.00027901
0.00101837
0.00162745
0.00211538
0.00249057
0.00276092
0.00293407
0.00301747
0.00301829
0.00294348
0.00279968
0.00259353
0.00233081
0.00201842
0.00165626
0.0012587
0.000777838
0.000347324
-0.411148
-0.40223
-0.392319
-0.381919
-0.371002
-0.359502
-0.347496
-0.335099
-0.322404
-0.309485
-0.296412
-0.283259
-0.270095
-0.256985
-0.243989
-0.231161
-0.21855
-0.2062
-0.194148
-0.182428
-0.171072
-0.160107
-0.149557
-0.139438
-0.129765
-0.120544
-0.111782
-0.103465
-0.095563
-0.0880656
-0.0809675
-0.0742582
-0.0679252
-0.0619693
-0.0563875
-0.0511655
-0.0462856
-0.0417323
-0.0374863
-0.0335534
-0.029926
-0.0265866
-0.0235184
-0.0207073
-0.0181401
-0.0158046
-0.01369
-0.0117832
-0.0100634
-0.00851521
-0.00712935
-0.00589738
-0.00481003
-0.00385799
-0.00303245
-0.00232501
-0.00172746
-0.00123176
-0.000830075
-0.000514723
-0.000278106
-0.000112521
-9.99437e-06
3.81497e-05
4.1456e-05
1.32799e-05
-3.22468e-05
-5.72229e-05
-6.4014e-05
-0.347053
-0.341064
-0.334193
-0.326869
-0.319112
-0.3109
-0.30225
-0.293179
-0.283749
-0.274033
-0.264094
-0.253988
-0.243767
-0.233488
-0.223202
-0.212954
-0.202783
-0.192728
-0.18282
-0.173095
-0.16358
-0.154302
-0.145282
-0.136539
-0.128089
-0.119944
-0.112113
-0.104599
-0.0974078
-0.0905432
-0.0840102
-0.0778139
-0.0719355
-0.066358
-0.0610769
-0.0560883
-0.0513845
-0.0469564
-0.0427961
-0.0388955
-0.0352422
-0.0318322
-0.0286607
-0.0257208
-0.0229961
-0.020481
-0.0181584
-0.0160251
-0.014061
-0.0122656
-0.0106363
-0.00916288
-0.00783429
-0.00664126
-0.0055754
-0.00462831
-0.00379163
-0.00305723
-0.0024173
-0.00186419
-0.00139044
-0.000988727
-0.000652328
-0.00037548
-0.000153866
1.42428e-05
0.000124913
0.000163903
0.000101594
-0.296839
-0.29324
-0.288963
-0.284285
-0.279186
-0.273623
-0.267622
-0.261238
-0.254516
-0.247492
-0.240203
-0.23269
-0.224993
-0.217154
-0.209209
-0.201195
-0.193145
-0.185094
-0.177071
-0.169106
-0.161226
-0.153456
-0.145817
-0.138328
-0.131008
-0.123872
-0.116937
-0.110216
-0.103719
-0.0974537
-0.0914282
-0.0856496
-0.0801225
-0.0748362
-0.0697811
-0.0649559
-0.06036
-0.0559902
-0.0518416
-0.0479084
-0.0441845
-0.0406639
-0.0373451
-0.0342265
-0.0313007
-0.0285583
-0.0259905
-0.0235907
-0.0213614
-0.0192987
-0.0173931
-0.0156349
-0.0140158
-0.0125284
-0.0111652
-0.00991835
-0.00878041
-0.00774388
-0.00680129
-0.00594491
-0.00516682
-0.00445708
-0.00380579
-0.00320223
-0.00263608
-0.00208551
-0.00154753
-0.000928883
-0.000426282
-0.244683
-0.242595
-0.239966
-0.237013
-0.233699
-0.22995
-0.225785
-0.221325
-0.216625
-0.211688
-0.206485
-0.201033
-0.195374
-0.189539
-0.183558
-0.177463
-0.171282
-0.16504
-0.15876
-0.152468
-0.146185
-0.139932
-0.13373
-0.127597
-0.121548
-0.115599
-0.109764
-0.104057
-0.0984879
-0.0930668
-0.0878019
-0.0826999
-0.077766
-0.0730036
-0.0684159
-0.0640059
-0.0597758
-0.0557271
-0.0518606
-0.0481765
-0.0446753
-0.0413493
-0.0381894
-0.0351932
-0.0323588
-0.0296826
-0.0271604
-0.0247883
-0.022562
-0.0204764
-0.0185258
-0.0167035
-0.0150036
-0.0134206
-0.0119489
-0.0105824
-0.00931523
-0.00814139
-0.007055
-0.00605018
-0.00512115
-0.00426231
-0.00347141
-0.00274447
-0.00207921
-0.00147149
-0.000936889
-0.000451775
-0.000163305
-0.206362
-0.205506
-0.204243
-0.202691
-0.20084
-0.198668
-0.196185
-0.193419
-0.190386
-0.187102
-0.183575
-0.179825
-0.175872
-0.171734
-0.167432
-0.162986
-0.158414
-0.153736
-0.148971
-0.144136
-0.139251
-0.134331
-0.129393
-0.124455
-0.119529
-0.114632
-0.109776
-0.104974
-0.100237
-0.0955755
-0.0909996
-0.0865173
-0.082136
-0.0778629
-0.0737041
-0.069665
-0.06575
-0.0619631
-0.0583078
-0.0547868
-0.0514026
-0.0481568
-0.0450451
-0.0420626
-0.0392082
-0.0364818
-0.0338819
-0.0314065
-0.0290534
-0.02682
-0.0247034
-0.0227003
-0.0208068
-0.0190189
-0.0173322
-0.015742
-0.0142433
-0.0128291
-0.0114926
-0.0102275
-0.0090267
-0.0078833
-0.0067897
-0.00573513
-0.00470943
-0.00368481
-0.0026764
-0.00155761
-0.000686617
-0.165522
-0.165199
-0.164568
-0.163719
-0.162646
-0.161325
-0.159765
-0.157958
-0.15591
-0.153629
-0.151165
-0.14854
-0.145755
-0.142815
-0.139729
-0.136504
-0.133156
-0.129696
-0.126139
-0.122499
-0.118789
-0.11502
-0.111208
-0.107363
-0.103498
-0.0996248
-0.0957543
-0.0918973
-0.0880639
-0.0842636
-0.0805052
-0.0767971
-0.073147
-0.0695618
-0.066048
-0.0626112
-0.0592566
-0.0559888
-0.0528116
-0.0497283
-0.0467414
-0.0438529
-0.041064
-0.0383754
-0.035788
-0.0333021
-0.0309175
-0.0286335
-0.0264492
-0.0243629
-0.0223737
-0.0204807
-0.0186821
-0.0169755
-0.0153578
-0.0138263
-0.0123778
-0.0110086
-0.0097152
-0.00849393
-0.00734117
-0.00625324
-0.00522448
-0.00425105
-0.00333363
-0.00246555
-0.00166887
-0.000887212
-0.000357248
-0.142244
-0.142498
-0.142522
-0.142341
-0.14196
-0.141377
-0.140593
-0.139613
-0.138443
-0.137089
-0.135557
-0.133853
-0.131984
-0.129963
-0.127804
-0.125514
-0.123098
-0.120565
-0.117924
-0.115183
-0.112353
-0.109442
-0.10646
-0.103416
-0.100321
-0.0971834
-0.094013
-0.0908189
-0.08761
-0.0843952
-0.0811826
-0.0779804
-0.0747962
-0.0716374
-0.0685107
-0.0654227
-0.0623794
-0.0593863
-0.0564485
-0.0535707
-0.0507571
-0.0480112
-0.0453363
-0.042735
-0.0402094
-0.0377613
-0.0353922
-0.0331032
-0.0308948
-0.0287673
-0.0267207
-0.0247543
-0.0228672
-0.021058
-0.0193247
-0.0176652
-0.0160764
-0.0145566
-0.0131025
-0.0117093
-0.0103717
-0.00908298
-0.00783579
-0.00661833
-0.00542303
-0.00422509
-0.00304625
-0.00175362
-0.000757825
-0.10773
-0.107926
-0.107963
-0.107872
-0.107648
-0.107284
-0.106782
-0.106145
-0.105369
-0.104465
-0.103434
-0.102281
-0.101006
-0.0996218
-0.0981358
-0.0965524
-0.094875
-0.0931076
-0.0912549
-0.0893221
-0.0873146
-0.0852382
-0.083099
-0.080903
-0.0786566
-0.0763662
-0.0740381
-0.0716788
-0.0692946
-0.0668917
-0.0644764
-0.0620546
-0.0596321
-0.0572147
-0.0548078
-0.0524166
-0.0500459
-0.0477007
-0.0453851
-0.0431035
-0.0408595
-0.0386567
-0.0364984
-0.0343875
-0.0323267
-0.0303183
-0.0283644
-0.0264668
-0.0246272
-0.0228468
-0.0211266
-0.0194676
-0.0178702
-0.016335
-0.0148621
-0.0134514
-0.0121027
-0.0108157
-0.00958978
-0.00842411
-0.00731783
-0.00626998
-0.00527951
-0.00434521
-0.00346612
-0.0026401
-0.00186917
-0.00113376
-0.000498172
0.603762
0.607404
0.615829
0.62649
0.637015
0.64607
0.652687
0.655938
0.655051
0.649546
0.639267
0.624396
0.605419
0.583492
0.559571
0.582081
0.584615
0.590375
0.597261
0.603253
0.607146
0.608104
0.605407
0.59853
0.587231
0.57155
0.551719
0.528107
0.500954
0.470599
0.55749
0.558885
0.561925
0.565011
0.566534
0.565468
0.561136
0.553038
0.540888
0.524664
0.504593
0.481102
0.454788
0.42634
0.39661
0.529884
0.530149
0.530485
0.529845
0.527086
0.521403
0.512307
0.499534
0.483043
0.463016
0.439827
0.41398
0.386052
0.35659
0.326207
0.499269
0.498437
0.496192
0.492055
0.485389
0.475647
0.462546
0.446052
0.426343
0.403769
0.378819
0.352068
0.324136
0.295597
0.267075
0.465779
0.463952
0.459356
0.452101
0.442075
0.429003
0.4128
0.393635
0.371857
0.347922
0.322356
0.295705
0.268512
0.24123
0.214353
0.429741
0.427055
0.420451
0.410605
0.397914
0.382369
0.364062
0.343323
0.320621
0.296473
0.27141
0.245943
0.220553
0.195616
0.171525
0.391673
0.388309
0.380136
0.368337
0.353771
0.336674
0.317281
0.296029
0.273449
0.250057
0.226327
0.202679
0.179483
0.157008
0.135539
0.352311
0.348474
0.33923
0.326175
0.310555
0.292799
0.273228
0.252331
0.23065
0.208674
0.186822
0.165442
0.144822
0.125149
0.10662
0.312592
0.308497
0.298681
0.285056
0.269175
0.251624
0.23278
0.213133
0.193188
0.173358
0.153961
0.135239
0.117384
0.100503
0.0847191
0.273638
0.269483
0.25954
0.245902
0.230296
0.213387
0.195559
0.177286
0.159042
0.141193
0.124003
0.107658
0.0922882
0.0779497
0.0647047
0.236731
0.232654
0.222939
0.209883
0.195358
0.180033
0.164225
0.148317
0.132676
0.117566
0.103152
0.0895374
0.0767931
0.0649428
0.0540114
0.203347
0.199338
0.189582
0.176548
0.162308
0.147599
0.13272
0.118018
0.103829
0.0903803
0.0777911
0.0661177
0.055379
0.0455551
0.0366266
0.175284
0.171671
0.162929
0.151515
0.139261
0.126809
0.114382
0.102211
0.090511
0.0794227
0.0690162
0.0593277
0.0503639
0.0421346
0.0345829
0.154857
0.14709
0.134633
0.121085
0.107716
0.0947669
0.082388
0.0707812
0.0600822
0.0503268
0.0414911
0.0335273
0.0263761
0.0199703
0.0142432
0.539222
0.512162
0.480835
0.447946
0.412246
0.372587
0.328834
0.281112
0.2294
0.173596
0.113707
0.0498746
-0.0176846
-0.0886879
-0.162769
-0.239469
-0.318245
-0.398472
-0.479467
-0.56045
-0.640603
-0.71914
-0.795356
-0.868491
-0.937806
-1.00262
-1.06249
-1.11668
-1.16473
-1.20651
-1.24186
-1.27068
-1.2929
-1.30856
-1.3178
-1.3208
-1.31781
-1.30913
-1.2951
-1.27611
-1.25256
-1.22489
-1.19354
-1.15899
-1.12171
-1.08213
-1.041
-0.998911
-0.956451
-0.91352
0.439921
0.408215
0.375028
0.341202
0.305218
0.266101
0.22392
0.178916
0.131146
0.0806267
0.027454
-0.0282274
-0.0862201
-0.146267
-0.208057
-0.271235
-0.3354
-0.400114
-0.464907
-0.52929
-0.592764
-0.65483
-0.714977
-0.772705
-0.827492
-0.87893
-0.926313
-0.969875
-1.01008
-1.04568
-1.07633
-1.10215
-1.12319
-1.13942
-1.15085
-1.15759
-1.15975
-1.15752
-1.15107
-1.14064
-1.12647
-1.10881
-1.08795
-1.06415
-1.03769
-1.00884
-0.97781
-0.945042
-0.90992
-0.873677
0.369335
0.342905
0.314673
0.285058
0.253392
0.219332
0.182961
0.144396
0.103665
0.0607853
0.0158196
-0.0311062
-0.079806
-0.130063
-0.181642
-0.234276
-0.287663
-0.341471
-0.395346
-0.448913
-0.501784
-0.553563
-0.603859
-0.652296
-0.698512
-0.742177
-0.782998
-0.820719
-0.855106
-0.885836
-0.91276
-0.935818
-0.954964
-0.970164
-0.981423
-0.988796
-0.99237
-0.992266
-0.98863
-0.981637
-0.971484
-0.958388
-0.942581
-0.924316
-0.903838
-0.881458
-0.857205
-0.831204
-0.803877
-0.775408
0.298447
0.272361
0.244709
0.215892
0.185537
0.153454
0.119715
0.0844306
0.0476721
0.00951346
-0.0299366
-0.0705346
-0.112126
-0.154555
-0.197645
-0.241192
-0.284969
-0.32874
-0.372255
-0.41526
-0.457494
-0.4987
-0.538623
-0.577019
-0.61365
-0.648307
-0.680764
-0.710906
-0.738154
-0.762958
-0.785201
-0.804621
-0.82112
-0.834705
-0.845392
-0.853202
-0.858176
-0.860378
-0.859893
-0.856823
-0.851282
-0.843394
-0.833296
-0.82113
-0.80704
-0.791178
-0.773681
-0.754682
-0.734368
-0.71275
0.241785
0.218701
0.194559
0.169636
0.143639
0.116428
0.0880655
0.0586364
0.0281915
-0.00322154
-0.0355341
-0.0686584
-0.102495
-0.136926
-0.17181
-0.206993
-0.242315
-0.277608
-0.312695
-0.347393
-0.381516
-0.414877
-0.44729
-0.478574
-0.508555
-0.537068
-0.563959
-0.58909
-0.61234
-0.63362
-0.652823
-0.669856
-0.684666
-0.697225
-0.707522
-0.715556
-0.721346
-0.724929
-0.726356
-0.725695
-0.723023
-0.718432
-0.712021
-0.703899
-0.694182
-0.682989
-0.670441
-0.656648
-0.641603
-0.625584
0.19078
0.169764
0.147942
0.125474
0.102173
0.0779766
0.0529562
0.0271927
0.000742603
-0.0263365
-0.0539706
-0.0820723
-0.110546
-0.139287
-0.168189
-0.197142
-0.226032
-0.254739
-0.283137
-0.311097
-0.338492
-0.365196
-0.391086
-0.41604
-0.439944
-0.462691
-0.484181
-0.504321
-0.523031
-0.540237
-0.555888
-0.569938
-0.582351
-0.593101
-0.602176
-0.609574
-0.615306
-0.619391
-0.621859
-0.622749
-0.622107
-0.619988
-0.616452
-0.611565
-0.605397
-0.598024
-0.589524
-0.57997
-0.56946
-0.557999
0.150758
0.132601
0.113912
0.0948042
0.0751621
0.0549541
0.0342336
0.0130584
-0.00853039
-0.0304923
-0.0527772
-0.0753278
-0.0980829
-0.120977
-0.143942
-0.166903
-0.189778
-0.212481
-0.23493
-0.257037
-0.278718
-0.299885
-0.320454
-0.340341
-0.359468
-0.377758
-0.395139
-0.411546
-0.426917
-0.441201
-0.454349
-0.466324
-0.47709
-0.486626
-0.494913
-0.501944
-0.507718
-0.512243
-0.515531
-0.517605
-0.518492
-0.518225
-0.516843
-0.514389
-0.510913
-0.506465
-0.501104
-0.49487
-0.487869
-0.479968
0.117212
0.101439
0.085296
0.0688391
0.0520011
0.0347748
0.0172046
-0.000664582
-0.0187972
-0.037157
-0.0557009
-0.0743813
-0.0931476
-0.111947
-0.130723
-0.149418
-0.167974
-0.186333
-0.204435
-0.22222
-0.23963
-0.256603
-0.273082
-0.289012
-0.304339
-0.319012
-0.332984
-0.346211
-0.358653
-0.370276
-0.381048
-0.390943
-0.399941
-0.408025
-0.415184
-0.421413
-0.42671
-0.431078
-0.434526
-0.437066
-0.438715
-0.439491
-0.439419
-0.438526
-0.436842
-0.434401
-0.431238
-0.427384
-0.422898
-0.417743
0.0910018
0.0777674
0.0643059
0.0506425
0.0367484
0.0226313
0.00832345
-0.00614424
-0.0207461
-0.0354555
-0.0502426
-0.0650751
-0.0799198
-0.0947422
-0.109507
-0.124177
-0.138715
-0.153082
-0.167238
-0.181144
-0.194761
-0.208049
-0.220972
-0.233492
-0.245575
-0.257185
-0.268292
-0.278865
-0.288878
-0.298304
-0.307121
-0.315311
-0.322857
-0.329745
-0.335966
-0.341511
-0.346378
-0.350565
-0.354075
-0.356912
-0.359082
-0.360599
-0.361475
-0.361726
-0.36137
-0.360425
-0.358917
-0.356862
-0.354302
-0.351195
0.0715063
0.0603811
0.0491062
0.0376987
0.0261417
0.0144434
0.00262852
-0.00927994
-0.021262
-0.0332969
-0.0453618
-0.0574323
-0.0694833
-0.0814889
-0.0934226
-0.105257
-0.116965
-0.128517
-0.139888
-0.15105
-0.161976
-0.172639
-0.183014
-0.193074
-0.202797
-0.21216
-0.22114
-0.229717
-0.237874
-0.245594
-0.25286
-0.259661
-0.265985
-0.271823
-0.277168
-0.282014
-0.286361
-0.290199
-0.293574
-0.296474
-0.298836
-0.300686
-0.30206
-0.30297
-0.303423
-0.303426
-0.302997
-0.302146
-0.300903
-0.299236
0.0537463
0.0446658
0.0355066
0.0262581
0.016927
0.00753116
-0.00191286
-0.0113913
-0.0208905
-0.0303952
-0.0398894
-0.049357
-0.0587814
-0.0681456
-0.0774325
-0.0866247
-0.0957049
-0.104656
-0.113459
-0.122098
-0.130556
-0.138814
-0.146857
-0.154669
-0.162234
-0.169538
-0.176566
-0.183305
-0.189744
-0.195872
-0.201677
-0.207151
-0.212286
-0.217075
-0.221513
-0.225595
-0.229318
-0.232679
-0.235694
-0.238384
-0.240717
-0.242669
-0.244239
-0.245458
-0.246343
-0.246895
-0.247122
-0.247028
-0.246634
-0.245911
0.0449934
0.0374713
0.029898
0.0222856
0.014625
0.0069209
-0.000811821
-0.00855886
-0.0163085
-0.0240498
-0.0317712
-0.0394612
-0.0471076
-0.0546983
-0.0622209
-0.0696626
-0.0770111
-0.0842538
-0.0913779
-0.0983711
-0.105221
-0.111917
-0.118446
-0.124799
-0.130963
-0.136929
-0.142688
-0.14823
-0.153547
-0.158633
-0.163483
-0.16809
-0.17245
-0.176558
-0.180411
-0.184008
-0.187344
-0.190429
-0.193222
-0.195742
-0.198034
-0.200066
-0.20182
-0.203294
-0.204504
-0.20544
-0.206122
-0.206565
-0.206779
-0.206746
0.0293702
0.0234519
0.01751
0.0115271
0.00552657
-0.000469921
-0.00645546
-0.0124275
-0.018381
-0.0243091
-0.0302041
-0.0360579
-0.0418631
-0.0476123
-0.0532983
-0.0589134
-0.0644499
-0.0699004
-0.0752576
-0.080514
-0.0856622
-0.0906946
-0.0956042
-0.100384
-0.105027
-0.109528
-0.11388
-0.118077
-0.122114
-0.125986
-0.129689
-0.13322
-0.136576
-0.139756
-0.142757
-0.145578
-0.148217
-0.150676
-0.152943
-0.155002
-0.156875
-0.158578
-0.160112
-0.161457
-0.162603
-0.163555
-0.164314
-0.164892
-0.165303
-0.165534
0.0286027
0.0239125
0.0192113
0.0141395
0.00874584
0.00331965
-0.00201959
-0.00724183
-0.0123268
-0.0173318
-0.0223145
-0.0272769