/*--------------------------------*- C++ -*----------------------------------*\
| =========                 |                                                 |
| \\      /  F ield         | OpenFOAM: The Open Source CFD Toolbox           |
|  \\    /   O peration     | Version:  2412                                  |
|   \\  /    A nd           | Website:  www.openfoam.com                      |
|    \\/     M anipulation  |                                                 |
\*---------------------------------------------------------------------------*/
FoamFile
{
    version     2.0;
    format      ascii;
    arch        "LSB;label=32;scalar=64";
    class       surfaceScalarField;
    location    "1500";
    object      phi;
}
// * * * * * * * * * * * * * * * * * * * * * * * * * * * * * * * * * * * * * //

dimensions      [0 3 -1 0 0 0 0];

oriented        oriented;

internalField   nonuniform List<scalar> 
28926
(
2.26835
0.00720493
-0.00695752
2.26773
0.0189812
-0.0183591
2.26689
0.0281252
-0.0272827
2.26597
0.035446
-0.0345253
2.26509
0.0413396
-0.0404666
2.26438
0.0460216
-0.0453073
2.26392
0.0496271
-0.0491658
2.26379
0.0522461
-0.0521122
2.26403
0.0539476
-0.0541931
2.26468
0.054799
-0.05545
2.26574
0.0548775
-0.0559338
2.26717
0.054271
-0.0557005
2.2689
0.0530932
-0.0548226
2.27082
0.0514265
-0.0533534
0.049516
2.27267
-0.0513614
2.50661
0.00739678
2.50614
0.0194556
2.50553
0.0287352
2.50492
0.0360511
2.50445
0.0418159
2.5042
0.0462638
2.50428
0.0495507
2.50474
0.0517907
2.5056
0.053079
2.50689
0.0535084
2.50859
0.0531776
2.51068
0.0521901
2.51311
0.0506562
2.51587
0.0486707
0.0463767
2.51901
2.7699
0.00751593
2.76962
0.0197389
2.7693
0.0290511
2.76908
0.0362682
2.76908
0.0418192
2.76938
0.0459598
2.77006
0.0488705
2.77116
0.0506924
2.77269
0.0515484
2.77464
0.0515576
2.77698
0.0508415
2.77965
0.0495229
2.78258
0.0477272
2.78568
0.0455623
0.0431673
2.78889
3.06084
0.00754354
3.06079
0.0197881
3.06083
0.0290118
3.06107
0.0360273
3.06161
0.0412794
3.06252
0.0450476
3.06386
0.0475396
3.06562
0.0489249
3.06782
0.0493543
3.0704
0.0489707
3.07333
0.0479135
3.07654
0.0463165
3.07996
0.0443091
3.08352
0.0419993
0.0395191
3.08717
3.38234
0.00746828
3.38256
0.019559
3.38301
0.0285625
3.38377
0.0352724
3.3849
0.0401483
3.38645
0.0434944
3.38845
0.0455461
3.39087
0.0465012
3.39369
0.0465357
3.39685
0.0458127
3.40027
0.0444858
3.40389
0.0426967
3.40763
0.0405758
3.4114
0.0382286
0.0357746
3.41514
3.73759
0.00727296
3.73813
0.0190236
3.73902
0.0276662
3.74033
0.0339699
3.74207
0.0384051
3.74427
0.0412992
3.7469
0.0429131
3.74993
0.0434683
3.75331
0.0431607
3.75695
0.042167
3.76079
0.0406471
3.76475
0.0387429
3.76874
0.0365799
3.77271
0.0342569
0.03188
3.77661
4.13015
0.00695167
4.13101
0.0181632
4.13237
0.0263061
4.13422
0.0321145
4.13656
0.0360638
4.13936
0.0384994
4.14257
0.0397019
4.14613
0.0399105
4.14996
0.0393334
4.15397
0.0381539
4.15809
0.0365323
4.16222
0.0346052
4.16632
0.0324887
4.1703
0.0302709
0.0280412
4.17414
4.5639
0.00650391
4.56509
0.016979
4.5669
0.0244932
4.56928
0.0297348
4.57217
0.0331753
4.5755
0.0351701
4.57919
0.0360104
4.58316
0.0359431
4.58731
0.0351798
4.59156
0.033901
4.59584
0.0322601
4.60006
0.0303836
4.60417
0.0283754
4.60813
0.0263125
0.0242688
4.6119
5.04319
0.00593735
5.04467
0.0154927
5.0469
0.0222671
5.04974
0.0268921
5.05309
0.0298228
5.05685
0.0314121
5.06091
0.0319509
5.06517
0.0316844
5.06953
0.0308188
5.07391
0.0295259
5.07822
0.027947
5.08241
0.0261948
5.08642
0.0243585
5.09023
0.0225023
0.0206847
5.09382
5.57276
0.00526728
5.57451
0.0137431
5.57709
0.0196913
5.5803
0.0236773
5.584
0.0261252
5.58804
0.0273697
5.59231
0.0276875
5.59668
0.0273093
5.60108
0.0264261
5.60541
0.0251939
5.60962
0.023738
5.61366
0.0221564
5.61749
0.0205244
5.6211
0.0188952
0.017315
5.62447
6.15792
0.00451496
6.15988
0.01178
6.16273
0.0168363
6.16624
0.0201711
6.1702
0.0221612
6.17446
0.0231109
6.17888
0.0232718
6.18334
0.0228526
6.18774
0.0220231
6.19201
0.020919
6.19611
0.0196466
6.19997
0.0182868
6.2036
0.0168999
6.20697
0.0155279
0.0142051
6.21008
6.80448
0.00369672
6.80661
0.00965331
6.80964
0.0138082
6.81327
0.0165415
6.81728
0.018153
6.82149
0.0188963
6.82578
0.0189851
6.83003
0.0185963
6.83418
0.0178739
6.83817
0.0169324
6.84196
0.0158608
6.84552
0.0147261
6.84884
0.0135778
6.85192
0.0124494
0.0113672
6.85476
7.51894
0.00281207
7.5213
0.00728508
7.52464
0.0104675
7.52859
0.0125976
7.53287
0.0138738
7.53729
0.0144787
7.5417
0.0145743
7.54599
0.014298
7.55011
0.0137621
7.55398
0.0130554
7.5576
0.0122464
7.56094
0.0113865
7.564
0.0105135
7.5668
0.00965303
0.00882517
7.56934
8.30833
0.00192754
8.31068
0.00493353
8.31392
0.00723153
8.31769
0.00882491
8.32172
0.00984356
8.32583
0.0103742
8.32988
0.0105159
8.33382
0.0103649
8.33757
0.0100062
8.34112
0.00950991
8.34444
0.00893049
8.34751
0.00830889
8.35035
0.00767479
8.35296
0.00704896
0.00644573
8.35533
9.18203
9.18565
9.19008
9.19484
9.19961
9.20422
9.20857
9.21262
9.21633
9.21971
9.22276
9.22551
9.22797
9.23018
9.23215
2.27259
-0.0371494
0.0372326
2.2728
-0.0329385
0.0327231
2.27339
-0.028729
0.0281437
2.27436
-0.0245072
0.0235312
2.27574
-0.0202733
0.0188959
2.27753
-0.0160638
0.0142694
2.27976
-0.0118951
0.00967108
2.28242
-0.00778102
0.00511884
2.28553
-0.00373675
0.000630011
2.28908
0.000222734
-0.00377448
2.29307
0.00408166
-0.00807201
2.29748
0.00782408
-0.0122397
2.3023
0.0114347
-0.0162548
2.3075
0.0148983
-0.0200949
2.31304
0.0182002
-0.0237378
2.31887
0.021327
-0.027163
2.32496
0.0242668
-0.0303516
2.33124
0.0270097
-0.0332885
2.33765
0.0295485
-0.0359574
2.34412
0.0318785
-0.0383506
2.35059
0.033998
-0.0404669
2.35699
0.0359072
-0.0423117
2.36327
0.03761
-0.0438834
2.36935
0.0391103
-0.0451893
2.37517
0.0404261
-0.046251
2.3807
0.0415306
-0.0470603
2.38587
0.0425413
-0.0477083
2.39063
0.0434131
-0.04818
2.39498
0.0441342
-0.0484776
2.39888
0.0447447
-0.0486446
2.40232
0.045268
-0.0487107
2.4053
0.0457263
-0.0487046
2.40781
0.0461408
-0.0486542
2.40987
0.0465314
-0.0485859
2.41147
0.0469168
-0.0485246
2.41265
0.047315
-0.0484937
2.41342
0.0477432
-0.0485151
2.41382
0.0482172
-0.0486086
2.41386
0.0487516
-0.0487924
2.41358
0.0493594
-0.0490825
2.41302
0.0500523
-0.049493
2.41222
0.0508402
-0.0500359
2.4112
0.0517321
-0.0507211
2.41003
0.0527329
-0.051556
2.40872
0.0538553
-0.052547
2.40734
0.0550679
-0.0536912
2.40594
0.0564073
-0.0550078
2.40458
0.0577812
-0.0564184
2.40325
0.059432
-0.0581023
0.0608358
2.40197
-0.0595571
2.51921
-0.0373509
2.51969
-0.0334194
2.52046
-0.0295037
2.52156
-0.0256052
2.52302
-0.0217321
2.52485
-0.0178958
2.52706
-0.0141059
2.52965
-0.0103713
2.53262
-0.00670194
2.53595
-0.00310784
2.53963
0.000399173
2.54365
0.00380718
2.54798
0.00710487
2.5526
0.0102814
2.55747
0.0133266
2.56257
0.0162314
2.56784
0.0189879
2.57326
0.0215894
2.57878
0.0240312
2.58435
0.0263102
2.58992
0.0284255
2.59545
0.0303785
2.60089
0.0321728
2.60618
0.0338139
2.6113
0.0353103
2.61616
0.0366699
2.62079
0.0379144
2.62521
0.0389954
2.6293
0.0400428
2.63306
0.0409815
2.63648
0.0418461
2.63955
0.0426548
2.64227
0.043423
2.64464
0.0441659
2.64666
0.0448983
2.64834
0.0456343
2.64969
0.0463872
2.65074
0.0471697
2.6515
0.0479935
2.65199
0.0488693
2.65223
0.0498069
2.65226
0.0508149
2.65209
0.0519013
2.65175
0.0530707
2.65127
0.0543368
2.65067
0.0556696
2.64999
0.0570885
2.64917
0.0585957
2.64838
0.0602302
0.0619371
2.64727
2.7887
-0.0371616
2.78883
-0.0335419
2.78928
-0.0299563
2.79008
-0.0264019
2.79122
-0.02288
2.79272
-0.0193965
2.79458
-0.0159589
2.79678
-0.0125747
2.79933
-0.00925177
2.80222
-0.00599781
2.80544
-0.00282107
2.80898
0.000271396
2.81281
0.00327263
2.81691
0.0061758
2.82127
0.00897472
2.82583
0.0116638
2.83058
0.0142382
2.83548
0.0166943
2.84048
0.0190295
2.84555
0.0212425
2.85064
0.0233333
2.85572
0.0253033
2.86073
0.0271551
2.86565
0.0288926
2.87044
0.0305218
2.87507
0.0320471
2.87949
0.0334859
2.8837
0.0347864
2.88766
0.0360875
2.89134
0.0372959
2.89475
0.038442
2.89786
0.0395409
2.90068
0.0406041
2.9032
0.0416426
2.90544
0.0426672
2.90738
0.0436883
2.90905
0.0447158
2.91046
0.0457593
2.91163
0.0468276
2.91257
0.0479288
2.91331
0.0490706
2.91386
0.0502597
2.91426
0.0515021
2.91453
0.0528028
2.9147
0.0541667
2.91477
0.0555953
2.91477
0.0570915
2.91472
0.0586403
2.91467
0.060288
0.0619978
2.91461
3.08694
-0.0369302
3.08703
-0.0336381
3.08745
-0.0303751
3.08819
-0.0271403
3.08925
-0.023937
3.09062
-0.0207703
3.09231
-0.0176456
3.0943
-0.0145681
3.09659
-0.011543
3.09917
-0.00857531
3.10202
-0.0056703
3.10512
-0.00283284
3.10846
-6.81208e-05
3.11202
0.00261906
3.11577
0.00522447
3.11969
0.00774445
3.12375
0.010176
3.12793
0.0125169
3.13219
0.0147656
3.13651
0.0169214
3.14086
0.0189845
3.14521
0.0209561
3.14953
0.0228382
3.15379
0.0246338
3.15796
0.0263466
3.16203
0.0279811
3.16597
0.029543
3.16972
0.0310383
3.17333
0.0324755
3.17677
0.0338584
3.18002
0.0351942
3.18307
0.0364918
3.18591
0.0377594
3.18855
0.0390046
3.19098
0.0402352
3.19321
0.0414589
3.19524
0.0426832
3.19709
0.0439153
3.19875
0.0451621
3.20025
0.0464299
3.2016
0.0477248
3.2028
0.0490523
3.20389
0.0504173
3.20487
0.0518243
3.20576
0.0532771
3.20657
0.0547791
3.20733
0.0563323
3.20805
0.0579193
3.20875
0.0595908
0.0613117
3.20944
3.41457
-0.0363575
3.41429
-0.0333557
3.4143
-0.0303831
3.41459
-0.0274389
3.41518
-0.0245254
3.41606
-0.0216465
3.41722
-0.0188057
3.41866
-0.0160067
3.42037
-0.0132531
3.42234
-0.0105483
3.42457
-0.00789602
3.42703
-0.00529948
3.42973
-0.00276183
3.43263
-0.000285667
3.43573
0.00212674
3.439
0.00447342
3.44242
0.00675281
3.44598
0.00896378
3.44964
0.0111058
3.45338
0.0131786
3.45718
0.015183
3.46102
0.0171198
3.46486
0.0189908
3.4687
0.0207982
3.4725
0.0225447
3.47625
0.0242336
3.47992
0.0258687
3.48351
0.0274539
3.48699
0.0289938
3.49035
0.0304943
3.49359
0.0319598
3.49669
0.0333952
3.49964
0.034806
3.50245
0.0361977
3.5051
0.0375759
3.50762
0.038946
3.50999
0.0403132
3.51222
0.0416827
3.51432
0.0430595
3.5163
0.0444484
3.51818
0.0458537
3.51995
0.0472797
3.52164
0.04873
3.52325
0.0502083
3.52481
0.0517176
3.52633
0.053261
3.52782
0.0548401
3.52928
0.0564595
3.53076
0.0581078
0.0598068
3.53227
3.77571
-0.0354637
3.77511
-0.0327484
3.77478
-0.0300598
3.77474
-0.0273969
3.77498
-0.0247613
3.77549
-0.0221553
3.77626
-0.0195813
3.7773
-0.0170418
3.77858
-0.014539
3.78011
-0.0120752
3.78187
-0.00965251
3.78384
-0.00727296
3.78602
-0.0049384
3.78838
-0.00265049
3.79092
-0.000410752
3.79361
0.0017795
3.79644
0.00391932
3.7994
0.00600807
3.80246
0.00804549
3.80561
0.0100317
3.80882
0.011967
3.81209
0.0138524
3.81539
0.015689
3.81871
0.0174784
3.82204
0.0192226
3.82534
0.0209237
3.82863
0.0225843
3.83188
0.0242074
3.83507
0.0257961
3.83821
0.0273538
3.84129
0.0288838
3.8443
0.0303898
3.84723
0.0318757
3.85008
0.0333452
3.85285
0.0348024
3.85555
0.0362511
3.85816
0.0376952
3.86071
0.0391383
3.86318
0.0405843
3.8656
0.0420364
3.86795
0.0434983
3.87026
0.0449729
3.87252
0.0464633
3.87476
0.0479722
3.87698
0.0495021
3.87918
0.0510555
3.88139
0.0526334
3.88361
0.0542421
3.88585
0.0558643
0.0575283
3.88813
4.17275
-0.034072
4.17163
-0.0316251
4.17077
-0.0292016
4.17017
-0.0268006
4.16983
-0.024423
4.16975
-0.0220705
4.16991
-0.0197447
4.17032
-0.0174473
4.17096
-0.0151797
4.17183
-0.0129435
4.17291
-0.0107401
4.17421
-0.00857074
4.17571
-0.00643656
4.1774
-0.00433856
4.17926
-0.00227755
4.1813
-0.000254135
4.18349
0.00173134
4.18582
0.00367869
4.18827
0.00558794
4.19085
0.00745936
4.19352
0.00929344
4.19628
0.0110909
4.19912
0.0128527
4.20202
0.01458
4.20496
0.0162743
4.20795
0.0179371
4.21096
0.0195703
4.214
0.0211759
4.21704
0.022756
4.22008
0.024313
4.22311
0.0258492
4.22613
0.0273672
4.22914
0.0288696
4.23213
0.030359
4.23509
0.0318381
4.23803
0.0333095
4.24095
0.034776
4.24385
0.03624
4.24673
0.0377042
4.2496
0.0391711
4.25245
0.040643
4.2553
0.0421223
4.25815
0.043611
4.26101
0.0451113
4.26389
0.046625
4.26679
0.0481539
4.26973
0.0496996
4.27271
0.0512636
4.27572
0.0528472
0.054449
4.2788
4.60998
-0.0321494
4.60832
-0.0299686
4.60693
-0.0278078
4.60579
-0.0256658
4.60491
-0.0235433
4.60429
-0.0214413
4.6039
-0.0193609
4.60376
-0.0173029
4.60385
-0.0152683
4.60416
-0.013258
4.60469
-0.0112727
4.60544
-0.00931323
4.60638
-0.00738022
4.60751
-0.00547402
4.60883
-0.00359528
4.61032
-0.00174404
4.61197
7.92789e-05
4.61378
0.00187479
4.61572
0.00364236
4.6178
0.00538249
4.62
0.00709544
4.62231
0.00878166
4.62472
0.0104419
4.62722
0.0120771
4.62981
0.0136881
4.63247
0.015276
4.6352
0.0168421
4.63798
0.0183877
4.64083
0.0199142
4.64372
0.0214233
4.64665
0.0229164
4.64962
0.0243954
4.65263
0.025862
4.65567
0.027318
4.65874
0.0287652
4.66185
0.0302055
4.66498
0.0316406
4.66815
0.0330726
4.67135
0.0345029
4.67459
0.0359338
4.67786
0.0373666
4.68118
0.0388032
4.68455
0.0402451
4.68797
0.0416937
4.69144
0.0431504
4.69498
0.0446166
4.69858
0.0460937
4.70227
0.0475824
4.70603
0.0490845
0.0505982
4.70988
5.09124
-0.0295679
5.08892
-0.0276493
5.08686
-0.0257471
5.08505
-0.0238605
5.0835
-0.0219896
5.08219
-0.020135
5.08113
-0.0182975
5.0803
-0.0164777
5.07971
-0.0146761
5.07935
-0.0128933
5.0792
-0.0111297
5.07928
-0.00938586
5.07956
-0.00766205
5.08004
-0.00595858
5.08072
-0.0042756
5.08159
-0.00261337
5.08264
-0.000971854
5.08387
0.000649141
5.08526
0.00224953
5.08681
0.00382978
5.08852
0.00539008
5.09037
0.00693094
5.09236
0.00845284
5.09448
0.00995641
5.09673
0.0114423
5.09909
0.0129114
5.10157
0.0143645
5.10415
0.0158025
5.10684
0.0172266
5.10963
0.0186375
5.11251
0.0200366
5.11548
0.0214251
5.11854
0.0228039
5.12168
0.0241745
5.12491
0.025538
5.12822
0.0268957
5.13161
0.0282489
5.13508
0.0295987
5.13864
0.0309466
5.14228
0.0322939
5.146
0.0336415
5.14982
0.0349906
5.15372
0.0363424
5.15771
0.0376978
5.16181
0.039058
5.166
0.0404238
5.1703
0.0417962
5.1747
0.0431761
5.17922
0.0445644
0.0459605
5.18386
5.62119
-0.026291
5.61818
-0.0246421
5.61544
-0.0230063
5.61296
-0.0213827
5.61075
-0.0197717
5.60878
-0.0181734
5.60707
-0.0165884
5.60561
-0.015017
5.6044
-0.0134595
5.60342
-0.0119161
5.60268
-0.0103872
5.60216
-0.00887306
5.60188
-0.0073737
5.60181
-0.00588923
5.60195
-0.00441992
5.6023
-0.00296556
5.60286
-0.00152627
5.60361
-0.000101947
5.60455
0.00130765
5.60568
0.00270254
5.60699
0.00408308
5.60847
0.00544956
5.61012
0.00680246
5.61193
0.00814196
5.61391
0.00946881
5.61603
0.0107833
5.61831
0.0120862
5.62074
0.0133779
5.6233
0.0146594
5.62601
0.015931
5.62885
0.0171938
5.63183
0.0184483
5.63494
0.0196955
5.63818
0.0209361
5.64154
0.022171
5.64504
0.0234005
5.64866
0.0246284
5.65241
0.0258425
5.6563
0.0270592
5.66031
0.028286
5.66445
0.0295062
5.66871
0.0307251
5.67311
0.0319445
5.67764
0.0331654
5.68231
0.0343887
5.68712
0.0356151
5.69207
0.036845
5.69717
0.0380794
5.70241
0.0393186
0.0405626
5.70781
6.206
-0.0222102
6.20219
-0.0208396
6.19867
-0.0194793
6.19541
-0.0181287
6.19243
-0.0167878
6.18971
-0.0154568
6.18726
-0.0141359
6.18507
-0.0128253
6.18313
-0.0115253
6.18145
-0.010236
6.18002
-0.00895754
6.17884
-0.00769013
6.1779
-0.00643377
6.1772
-0.00518855
6.17673
-0.00395441
6.1765
-0.00273151
6.17649
-0.00151966
6.17671
-0.000318827
6.17715
0.000871125
6.1778
0.00205032
6.17866
0.00321903
6.17974
0.00437743
6.18101
0.00552581
6.18249
0.00666449
6.18417
0.00779371
6.18603
0.00891395
6.1881
0.0100255
6.19034
0.011129
6.19278
0.0122246
6.1954
0.0133131
6.1982
0.0143947
6.20117
0.0154701
6.20433
0.0165399
6.20766
0.0176044
6.21117
0.0186646
6.21485
0.01972
6.2187
0.0207756
6.22273
0.0218134
6.22694
0.0228498
6.23132
0.0239029
6.23588
0.0249528
6.2406
0.0260029
6.24549
0.0270483
6.25057
0.0280932
6.25582
0.0291387
6.26125
0.0301856
6.26686
0.0312343
6.27265
0.0322853
6.27863
0.0333392
0.034396
6.2848
6.84986
-0.0173154
6.84526
-0.0162414
6.84096
-0.0151757
6.83695
-0.0141179
6.83323
-0.0130673
6.82979
-0.012024
6.82665
-0.010988
6.82378
-0.00995957
6.82119
-0.00893869
6.81888
-0.0079258
6.81685
-0.006921
6.81508
-0.00592431
6.81358
-0.00493573
6.81235
-0.00395537
6.81138
-0.00298306
6.81067
-0.0020189
6.81021
-0.00106279
6.81001
-0.000114589
6.81005
0.00082573
6.81034
0.00175829
6.81088
0.0026833
6.81166
0.00360089
6.81267
0.00451114
6.81392
0.00541438
6.8154
0.00631091
6.81712
0.00720083
6.81906
0.00808442
6.82122
0.00896204
6.82362
0.00983333
6.82623
0.0106991
6.82906
0.0115595
6.83212
0.0124151
6.83539
0.0132661
6.83888
0.0141129
6.84259
0.0149558
6.84652
0.015795
6.85066
0.0166317
6.85501
0.017462
6.85958
0.0182843
6.86437
0.0191146
6.86937
0.0199508
6.87459
0.0207872
6.88001
0.0216214
6.88565
0.0224515
6.89151
0.0232868
6.89757
0.0241171
6.90386
0.0249469
6.91037
0.0257773
6.9171
0.0266091
0.0274424
6.92405
7.56348
-0.0114589
7.55794
-0.0107025
7.55272
-0.00995248
7.54781
-0.00920753
7.54321
-0.00846698
7.53892
-0.00773161
7.53493
-0.00700176
7.53125
-0.00627762
7.52787
-0.00555956
7.52479
-0.00484758
7.52201
-0.00414164
7.51953
-0.00344184
7.51734
-0.00274823
7.51545
-0.00206079
7.51385
-0.00137955
7.51253
-0.000704273
7.5115
-3.51415e-05
7.51076
0.000628066
7.5103
0.00128541
7.51012
0.00193701
7.51022
0.00258297
7.5106
0.00322334
7.51125
0.00385845
7.51218
0.00448826
7.51338
0.00511295
7.51484
0.00573289
7.51658
0.00634798
7.51858
0.00695859
7.52085
0.00756435
7.52339
0.00816566
7.52618
0.00876274
7.52924
0.0093555
7.53256
0.00994443
7.53615
0.0105297
7.53999
0.0111116
7.5441
0.0116903
7.54846
0.0122655
7.55309
0.0128381
7.55796
0.013407
7.5631
0.0139778
7.5685
0.0145523
7.57416
0.0151256
7.58008
0.0157017
7.58626
0.0162748
7.59269
0.0168535
7.59938
0.0174276
7.60633
0.0179984
7.61354
0.0185674
7.62101
0.0191364
0.0197063
7.62875
8.34863
-0.00475149
8.34226
-0.00433533
8.33623
-0.00392306
8.33054
-0.00351563
8.32519
-0.00311357
8.32017
-0.00271613
8.31549
-0.00232294
8.31115
-0.00193402
8.30714
-0.00154919
8.30346
-0.00116878
8.30011
-0.000793123
8.29709
-0.000422409
8.2944
-5.62705e-05
8.29203
0.000305316
8.28999
0.000662478
8.28827
0.00101509
8.28687
0.00136342
8.28579
0.00170732
8.28503
0.00204696
8.28459
0.00238236
8.28446
0.00271366
8.28464
0.00304089
8.28513
0.00336422
8.28594
0.00368365
8.28705
0.00399938
8.28847
0.00431145
8.2902
0.00462007
8.29223
0.00492529
8.29457
0.00522733
8.29721
0.00552633
8.30015
0.00582216
8.30339
0.00611464
8.30693
0.0064043
8.31077
0.00669129
8.31491
0.00697585
8.31934
0.00725792
8.32407
0.0075378
8.32909
0.00781551
8.3344
0.00809105
8.34002
0.00836488
8.34593
0.00864037
8.35214
0.00891604
8.35865
0.00919131
8.36546
0.00946645
8.37257
0.00974127
8.37998
0.0100172
8.38769
0.0102901
8.39569
0.010562
8.404
0.0108328
0.0111053
8.4126
9.22423
9.21669
9.20952
9.20271
9.19628
9.19021
9.18451
9.17918
9.17421
9.16961
9.16537
9.16149
9.15798
9.15482
9.15203
9.1496
9.14753
9.14581
9.14445
9.14345
9.1428
9.14251
9.14257
9.14298
9.14374
9.14486
9.14632
9.14814
9.1503
9.15281
9.15568
9.15888
9.16244
9.16634
9.17059
9.17518
9.18011
9.18539
9.19102
9.19698
9.20329
9.20995
9.21695
9.22431
9.23201
9.24006
9.24846
9.25721
9.2663
9.27574
2.39728
-0.0223798
0.0270721
2.39252
-0.0237283
0.0284842
2.38762
-0.0249636
0.0298681
2.38271
-0.0260387
0.0309495
2.37789
-0.0269088
0.0317317
2.3732
-0.0275852
0.0322664
2.3687
-0.0280862
0.032587
2.36441
-0.028421
0.0327122
2.36035
-0.0285981
0.0326594
2.35653
-0.0286303
0.0324495
2.35296
-0.0285321
0.0321031
2.34964
-0.028318
0.0316397
2.34656
-0.0280016
0.0310766
2.34373
-0.0275962
0.0304305
2.34113
-0.0271145
0.0297163
2.33875
-0.026568
0.0289482
2.33658
-0.0259646
0.028136
2.3346
-0.0253307
0.0273028
2.33281
-0.0246569
0.0264512
2.3312
-0.0239777
0.0255905
2.32975
-0.023286
0.0247286
2.32846
-0.0225777
0.0238688
2.32731
-0.0218659
0.0230172
2.32629
-0.0211561
0.022179
2.32538
-0.0204511
0.0213575
2.32458
-0.0197554
0.0205555
2.32388
-0.0190725
0.0197754
2.32327
-0.0184045
0.019019
2.32273
-0.0177531
0.0182876
2.32227
-0.0171195
0.0175818
2.32187
-0.0165051
0.0169024
2.32153
-0.0159111
0.0162497
2.32125
-0.0153382
0.0156236
2.32101
-0.0147889
0.0150242
2.32082
-0.0142586
0.0144515
2.32066
-0.0137441
0.0139038
2.32053
-0.0132492
0.0133789
2.32043
-0.0127762
0.0128772
2.32036
-0.0123263
0.0124002
2.32031
-0.011898
0.0119474
2.32028
-0.0114902
0.0115178
2.32027
-0.0111021
0.0111105
2.32028
-0.010733
0.0107245
2.3203
-0.0103822
0.0103587
2.32034
-0.0100492
0.0100123
2.32039
-0.00973343
0.00968479
2.32045
-0.00943445
0.0093754
2.32051
-0.00915188
0.0090836
2.32059
-0.0088853
0.00880879
2.32067
-0.00863428
0.00855042
2.32077
-0.00839839
0.00830786
2.32086
-0.00817731
0.00808079
2.32096
-0.00797071
0.00786861
2.32107
-0.00777837
0.00767123
2.32118
-0.00760018
0.0074884
2.3213
-0.00743593
0.00731988
2.32142
-0.00728551
0.0071654
2.32154
-0.00714884
0.00702487
2.32167
-0.00702586
0.00689793
2.3218
-0.00691673
0.00678494
2.32194
-0.00682167
0.00668583
2.32208
-0.00674117
0.00660152
2.32222
-0.0066756
0.00653177
2.32237
-0.0066257
0.00647785
2.32252
-0.00659214
0.00643935
2.32268
-0.00657346
0.00641726
2.32284
-0.00657245
0.00641454
2.323
-0.00659036
0.00642547
-0.00663064
0.00646517
2.64209
-0.0171951
2.63705
-0.0186867
2.6321
-0.0200129
2.62724
-0.0211862
2.62253
-0.02219
2.61796
-0.0230222
2.61357
-0.0236936
2.60936
-0.0242139
2.60536
-0.0245911
2.60156
-0.024834
2.59798
-0.024953
2.59462
-0.0249593
2.59148
-0.0248639
2.58857
-0.0246776
2.58586
-0.0244109
2.58337
-0.0240737
2.58108
-0.023676
2.57897
-0.0232259
2.57704
-0.0227215
2.57527
-0.0222086
2.57366
-0.0216792
2.57221
-0.0211253
2.5709
-0.0205606
2.56974
-0.0199901
2.56869
-0.0194069
2.56776
-0.0188228
2.56693
-0.0182426
2.5662
-0.0176687
2.56555
-0.0171025
2.56497
-0.0165467
2.56447
-0.0160034
2.56403
-0.0154735
2.56365
-0.014959
2.56332
-0.0144582
2.56304
-0.0139734
2.5628
-0.0135074
2.56261
-0.0130581
2.56246
-0.012624
2.56234
-0.0122049
2.56224
-0.0118038
2.56217
-0.0114208
2.56213
-0.011055
2.5621
-0.0107057
2.56209
-0.0103727
2.5621
-0.0100558
2.56212
-0.00975475
2.56215
-0.00946911
2.5622
-0.00919855
2.56226
-0.00894279
2.56232
-0.00870154
2.5624
-0.00847451
2.56248
-0.00826147
2.56258
-0.00806219
2.56267
-0.00787656
2.56278
-0.00770454
2.56289
-0.00754604
2.563
-0.007401
2.56312
-0.00726944
2.56325
-0.00715141
2.56338
-0.00704709
2.56352
-0.00695677
2.56366
-0.00688086
2.5638
-0.00681986
2.56395
-0.00677448
2.5641
-0.00674545
2.56426
-0.00673136
2.56442
-0.00673329
2.56459
-0.00675869
-0.00680581
2.91034
-0.0129325
2.90611
-0.0144504
2.90188
-0.0157875
2.89767
-0.0169702
2.89348
-0.0180089
2.88937
-0.0189049
2.88534
-0.0196633
2.88141
-0.0202912
2.87762
-0.0207952
2.87397
-0.0211815
2.87047
-0.0214575
2.86714
-0.021631
2.86399
-0.02171
2.86101
-0.0217026
2.85822
-0.0216167
2.85561
-0.0214601
2.85317
-0.0212406
2.85091
-0.0209654
2.84883
-0.0206396
2.8469
-0.0202784
2.84511
-0.0198891
2.84346
-0.0194798
2.84196
-0.0190577
2.84059
-0.0186219
2.83935
-0.0181658
2.83823
-0.0176998
2.83722
-0.0172323
2.83631
-0.0167629
2.8355
-0.0162891
2.83477
-0.015818
2.83412
-0.0153517
2.83354
-0.0148918
2.83302
-0.0144398
2.83256
-0.0139976
2.83215
-0.0135686
2.8318
-0.0131546
2.83149
-0.0127549
2.83124
-0.0123681
2.83103
-0.0119931
2.83085
-0.0116288
2.83071
-0.0112767
2.83059
-0.0109383
2.8305
-0.0106137
2.83043
-0.0103031
2.83038
-0.0100065
2.83035
-0.00972372
2.83033
-0.00945473
2.83034
-0.00919936
2.83035
-0.00895747
2.83038
-0.00872889
2.83042
-0.0085135
2.83047
-0.0083112
2.83053
-0.00812194
2.83059
-0.00794559
2.83067
-0.0077821
2.83076
-0.00763148
2.83085
-0.00749379
2.83095
-0.00736912
2.83106
-0.00725761
2.83117
-0.0071595
2.83129
-0.00707508
2.83141
-0.0070048
2.83154
-0.00694914
2.83167
-0.00690872
2.83181
-0.00688413
2.83196
-0.00687645
2.83211
-0.00688171
2.83226
-0.00690991
-0.00695845
3.2058
-0.00929426
3.20201
-0.0106599
3.19813
-0.011909
3.1942
-0.0130429
3.19026
-0.014067
3.18634
-0.0149822
3.18246
-0.015789
3.17866
-0.0164893
3.17495
-0.0170864
3.17135
-0.0175841
3.16788
-0.0179868
3.16455
-0.0182993
3.16137
-0.0185273
3.15834
-0.0186763
3.15548
-0.0187512
3.15278
-0.0187578
3.15024
-0.0187023
3.14786
-0.0185907
3.14565
-0.0184286
3.1436
-0.0182227
3.14168
-0.0179747
3.1399
-0.0176987
3.13825
-0.0174055
3.13672
-0.017092
3.13531
-0.0167611
3.13403
-0.0164148
3.13286
-0.0160612
3.13179
-0.0156988
3.13083
-0.0153249
3.12996
-0.0149492
3.12918
-0.0145684
3.12847
-0.0141868
3.12784
-0.0138081
3.12728
-0.0134343
3.12677
-0.0130666
3.12633
-0.0127077
3.12593
-0.0123575
3.12558
-0.0120161
3.12527
-0.0116836
3.125
-0.0113601
3.12477
-0.0110459
3.12457
-0.0107419
3.12441
-0.0104486
3.12427
-0.0101666
3.12416
-0.009896
3.12407
-0.00963698
3.12401
-0.00938965
3.12396
-0.00915406
3.12394
-0.00893021
3.12393
-0.00871812
3.12393
-0.00851781
3.12395
-0.00832933
3.12398
-0.00815272
3.12402
-0.00798805
3.12407
-0.00783537
3.12414
-0.00769476
3.12421
-0.00756636
3.12429
-0.00745035
3.12438
-0.00734693
3.12448
-0.00725638
3.12458
-0.00717907
3.12469
-0.00711543
3.12481
-0.00706597
3.12493
-0.00703135
3.12506
-0.00701225
3.12519
-0.00700991
3.12533
-0.0070192
3.12547
-0.00704986
-0.00710009
3.52918
-0.00620128
3.52595
-0.00743313
3.52263
-0.00858532
3.51924
-0.00965625
3.51582
-0.0106437
3.51238
-0.0115457
3.50895
-0.0123614
3.50555
-0.0130913
3.5022
-0.0137366
3.49892
-0.0142993
3.49571
-0.0147816
3.4926
-0.015187
3.48959
-0.0155194
3.4867
-0.0157819
3.48393
-0.0159776
3.48128
-0.0161105
3.47876
-0.0161852
3.47638
-0.0162063
3.47413
-0.016178
3.47201
-0.0161051
3.47003
-0.0159916
3.46817
-0.0158423
3.46643
-0.0156678
3.46481
-0.0154699
3.4633
-0.0152477
3.46189
-0.0150067
3.46058
-0.0147548
3.45937
-0.0144898
3.45826
-0.0142139
3.45724
-0.0139318
3.45631
-0.0136381
3.45547
-0.0133394
3.45469
-0.0130366
3.454
-0.0127374
3.45337
-0.0124359
3.4528
-0.0121434
3.45229
-0.0118499
3.45184
-0.0115596
3.45143
-0.0112741
3.45106
-0.0109944
3.45074
-0.0107214
3.45045
-0.0104559
3.4502
-0.0101985
3.44999
-0.00994966
3.4498
-0.00970972
3.44964
-0.00947901
3.44951
-0.00925777
3.4494
-0.00904618
3.44932
-0.00884442
3.44925
-0.00865262
3.4492
-0.00847097
3.44917
-0.00829969
3.44916
-0.00813894
3.44916
-0.00798891
3.44918
-0.00784976
3.4492
-0.00772169
3.44924
-0.0076049
3.44929
-0.00749964
3.44935
-0.00740621
3.44942
-0.00732492
3.4495
-0.00725616
3.44958
-0.0072004
3.44967
-0.00715814
3.44977
-0.00713
3.44988
-0.00711657
3.44998
-0.00711892
3.4501
-0.00713735
3.45022
-0.00717155
-0.00722724
3.88564
-0.00371201
3.88299
-0.00478896
3.88022
-0.00581197
3.87734
-0.00677604
3.87438
-0.00767972
3.87135
-0.00852163
3.86829
-0.00930007
3.86521
-0.0100139
3.86214
-0.010663
3.85909
-0.0112477
3.85608
-0.0117687
3.85312
-0.0122277
3.85022
-0.0126265
3.84741
-0.0129667
3.84468
-0.0132502
3.84205
-0.0134799
3.83952
-0.0136584
3.83711
-0.0137893
3.8348
-0.0138751
3.83262
-0.0139188
3.83055
-0.0139236
3.8286
-0.0138932
3.82676
-0.0138309
3.82503
-0.0137391
3.8234
-0.0136189
3.82187
-0.0134757
3.82044
-0.0133198
3.8191
-0.013151
3.81785
-0.0129677
3.81669
-0.0127718
3.81562
-0.0125641
3.81463
-0.0123496
3.81372
-0.0121271
3.81289
-0.0119039
3.81212
-0.0116737
3.81143
-0.0114483
3.8108
-0.0112174
3.81022
-0.0109867
3.8097
-0.0107539
3.80923
-0.0105234
3.80881
-0.0102966
3.80843
-0.0100745
3.80809
-0.00985759
3.80778
-0.00964664
3.80751
-0.00944196
3.80728
-0.00924412
3.80708
-0.00905332
3.8069
-0.00887001
3.80675
-0.00869422
3.80662
-0.00852636
3.80652
-0.00836692
3.80644
-0.00821624
3.80637
-0.0080746
3.80632
-0.00794226
3.80629
-0.00781952
3.80628
-0.00770664
3.80628
-0.00760393
3.80629
-0.00751169
3.80631
-0.00743028
3.80635
-0.00736006
3.80639
-0.00730146
3.80645
-0.00725494
3.80651
-0.00722102
3.80658
-0.00720027
3.80666
-0.00719326
3.80674
-0.00720042
3.80683
-0.00722314
3.80691
-0.00725503
-0.00730419
4.27681
-0.00172126
4.27467
-0.0026478
4.2724
-0.00353939
4.27001
-0.00438643
4.26752
-0.00519335
4.26496
-0.0059607
4.26234
-0.0066836
4.25969
-0.00735975
4.25701
-0.0079879
4.25433
-0.00856737
4.25166
-0.00909786
4.24902
-0.00957949
4.2464
-0.0100127
4.24383
-0.0103983
4.24132
-0.0107374
4.23887
-0.0110313
4.2365
-0.0112821
4.2342
-0.0114918
4.23198
-0.0116617
4.22986
-0.0117932
4.22782
-0.0118887
4.22588
-0.0119506
4.22403
-0.0119814
4.22228
-0.0119834
4.22062
-0.0119587
4.21905
-0.0119094
4.21757
-0.0118407
4.21618
-0.0117568
4.21486
-0.011656
4.21363
-0.0115397
4.21248
-0.0114089
4.2114
-0.0112698
4.21039
-0.011123
4.20946
-0.0109687
4.20859
-0.0108081
4.20779
-0.0106426
4.20704
-0.0104734
4.20636
-0.0103024
4.20573
-0.0101258
4.20516
-0.00994842
4.20463
-0.00977154
4.20415
-0.00959668
4.20372
-0.00942378
4.20333
-0.00925491
4.20297
-0.00908873
4.20266
-0.00892829
4.20238
-0.00877105
4.20213
-0.00862093
4.20191
-0.00847444
4.20171
-0.0083335
4.20155
-0.00819916
4.2014
-0.00807193
4.20128
-0.00795219
4.20118
-0.00784031
4.20109
-0.00773663
4.20103
-0.00764148
4.20098
-0.0075552
4.20095
-0.00747818
4.20093
-0.00741079
4.20092
-0.00735345
4.20093
-0.00730661
4.20094
-0.00727077
4.20097
-0.00724647
4.201
-0.00723438
4.20104
-0.00723522
4.20109
-0.00724998
4.20115
-0.0072804
4.20122
-0.00732533
-0.00738805
4.70839
-0.000231284
4.70675
-0.00100872
4.70498
-0.00176552
4.70308
-0.00249073
4.70108
-0.00319002
4.69898
-0.00386437
4.69681
-0.0045086
4.69457
-0.00512069
4.69228
-0.00569924
4.68995
-0.00624303
4.68761
-0.00675118
4.68525
-0.00722314
4.6829
-0.00765869
4.68056
-0.00805779
4.67824
-0.00842067
4.67596
-0.00874766
4.67371
-0.00904012
4.67152
-0.00929854
4.66938
-0.00952372
4.66731
-0.00971679
4.6653
-0.00987915
4.66336
-0.0100123
4.66149
-0.0101181
4.65971
-0.0101979
4.658
-0.0102529
4.65638
-0.010285
4.65483
-0.0102961
4.65337
-0.0102877
4.65197
-0.0102609
4.65065
-0.010217
4.6494
-0.0101565
4.64821
-0.0100855
4.64709
-0.010007
4.64605
-0.00991998
4.64506
-0.00982454
4.64414
-0.0097217
4.64328
-0.00961253
4.64248
-0.00949778
4.64173
-0.00937852
4.64104
-0.00925628
4.6404
-0.00913203
4.63981
-0.00900731
4.63927
-0.00888193
4.63877
-0.00875814
4.63832
-0.00863472
4.6379
-0.00851514
4.63753
-0.00839651
4.63719
-0.00828129
4.63688
-0.00816719
4.6366
-0.00805661
4.63636
-0.00795084
4.63613
-0.00785045
4.63594
-0.00775591
4.63577
-0.00766763
4.63561
-0.00758598
4.63548
-0.00751136
4.63537
-0.00744416
4.63528
-0.00738478
4.6352
-0.00733363
4.63514
-0.00729115
4.63509
-0.00725779
4.63505
-0.00723399
4.63503
-0.00722024
4.63501
-0.00721701
4.635
-0.00722471
4.63499
-0.0072435