/*--------------------------------*- C++ -*----------------------------------*\
| =========                 |                                                 |
| \\      /  F ield         | OpenFOAM: The Open Source CFD Toolbox           |
|  \\    /   O peration     | Version:  2412                                  |
|   \\  /    A nd           | Website:  www.openfoam.com                      |
|    \\/     M anipulation  |                                                 |
\*---------------------------------------------------------------------------*/
FoamFile
{
    version     2.0;
    format      ascii;
    arch        "LSB;label=32;scalar=64";
    class       volVectorField;
    location    "1500";
    object      U;
}
// * * * * * * * * * * * * * * * * * * * * * * * * * * * * * * * * * * * * * //

dimensions      [0 1 -1 0 0 0 0];

internalField   nonuniform List<vector> 
14620
(
(4.99981 0.00562068 0)
(4.999 0.0164929 0)
(4.99737 0.0271995 0)
(4.99533 0.0381676 0)
(4.99327 0.0495843 0)
(4.99146 0.0615127 0)
(4.99011 0.0739438 0)
(4.9894 0.0868038 0)
(4.98947 0.0999652 0)
(4.99042 0.113262 0)
(4.99227 0.126516 0)
(4.99501 0.139529 0)
(4.99848 0.152188 0)
(5.0026 0.164124 0)
(5.0068 0.176041 0)
(4.99987 0.00579153 0)
(4.99931 0.0169824 0)
(4.9982 0.0279301 0)
(4.99691 0.0390342 0)
(4.99575 0.0504549 0)
(4.99498 0.0622261 0)
(4.99476 0.0743105 0)
(4.99524 0.086613 0)
(4.99652 0.0989943 0)
(4.99865 0.111291 0)
(5.00162 0.123336 0)
(5.00538 0.134975 0)
(5.00988 0.146089 0)
(5.01506 0.156578 0)
(5.02093 0.166528 0)
(4.99993 0.00591396 0)
(4.99962 0.0173217 0)
(4.99905 0.0283911 0)
(4.9985 0.0394879 0)
(4.99824 0.0507457 0)
(4.99845 0.0621756 0)
(4.9993 0.0737234 0)
(5.00087 0.0852867 0)
(5.00321 0.0967305 0)
(5.00633 0.107907 0)
(5.0102 0.118673 0)
(5.01472 0.1289 0)
(5.01978 0.138492 0)
(5.02525 0.147336 0)
(5.03101 0.155479 0)
(4.99999 0.0059717 0)
(4.99993 0.0174707 0)
(4.9999 0.0285314 0)
(5.00007 0.0394807 0)
(5.00066 0.0504265 0)
(5.0018 0.0613617 0)
(5.00359 0.0722214 0)
(5.0061 0.082903 0)
(5.00932 0.0932823 0)
(5.01321 0.103232 0)
(5.01772 0.112638 0)
(5.02274 0.121407 0)
(5.02817 0.129482 0)
(5.03388 0.136804 0)
(5.03983 0.14347 0)
(5.00004 0.00595247 0)
(5.00023 0.0173928 0)
(5.0007 0.0282945 0)
(5.00156 0.0389402 0)
(5.00291 0.0494137 0)
(5.00486 0.0596955 0)
(5.00746 0.0697191 0)
(5.01071 0.0793916 0)
(5.01458 0.0886104 0)
(5.019 0.0972787 0)
(5.02388 0.105318 0)
(5.02911 0.112673 0)
(5.03457 0.119321 0)
(5.04013 0.125234 0)
(5.04574 0.130513 0)
(5.0001 0.00584505 0)
(5.00051 0.0170557 0)
(5.00144 0.0276335 0)
(5.00289 0.0378147 0)
(5.00491 0.0476631 0)
(5.00752 0.0571549 0)
(5.01073 0.0662311 0)
(5.01452 0.0748179 0)
(5.01881 0.0828409 0)
(5.02352 0.0902376 0)
(5.02854 0.0969662 0)
(5.03377 0.103007 0)
(5.03911 0.108369 0)
(5.04445 0.113058 0)
(5.04977 0.117187 0)
(5.00014 0.00564062 0)
(5.00074 0.0164373 0)
(5.00206 0.0265212 0)
(5.00402 0.0360826 0)
(5.00655 0.0451709 0)
(5.00965 0.0537655 0)
(5.01328 0.061822 0)
(5.01739 0.0692907 0)
(5.02187 0.0761282 0)
(5.02663 0.0823055 0)
(5.03157 0.0878139 0)
(5.03659 0.0926628 0)
(5.04159 0.0968837 0)
(5.04649 0.100502 0)
(5.05128 0.103626 0)
(5.00018 0.0053365 0)
(5.00093 0.0155304 0)
(5.00255 0.0249544 0)
(5.00487 0.0337562 0)
(5.00777 0.0419759 0)
(5.01118 0.0496029 0)
(5.01503 0.0566132 0)
(5.01923 0.0629845 0)
(5.0237 0.0687041 0)
(5.02832 0.0737737 0)
(5.03301 0.078211 0)
(5.03768 0.0820476 0)
(5.04227 0.0853301 0)
(5.0467 0.0880973 0)
(5.05098 0.0904515 0)
(5.0002 0.00493555 0)
(5.00106 0.014345 0)
(5.00288 0.0229584 0)
(5.00544 0.030886 0)
(5.00854 0.0381624 0)
(5.01207 0.044788 0)
(5.01595 0.0507576 0)
(5.0201 0.0560731 0)
(5.02439 0.0607473 0)
(5.02874 0.0648057 0)
(5.03307 0.0682861 0)
(5.0373 0.0712344 0)
(5.04138 0.0737054 0)
(5.04527 0.0757448 0)
(5.04897 0.0774419 0)
(5.00022 0.0044467 0)
(5.00113 0.0129085 0)
(5.00306 0.0205846 0)
(5.00572 0.0275561 0)
(5.00885 0.0338581 0)
(5.01234 0.0395056 0)
(5.01608 0.0445131 0)
(5.01998 0.048902 0)
(5.02393 0.0527023 0)
(5.02786 0.0559531 0)
(5.03171 0.0587009 0)
(5.03542 0.0609959 0)
(5.03897 0.0628931 0)
(5.04231 0.0644376 0)
(5.04547 0.0657063 0)
(5.00022 0.0038837 0)
(5.00114 0.0112629 0)
(5.00309 0.0179056 0)
(5.00575 0.0238635 0)
(5.00882 0.0291628 0)
(5.01218 0.0338248 0)
(5.01572 0.0378772 0)
(5.01934 0.041357 0)
(5.02296 0.0443089 0)
(5.0265 0.046783 0)
(5.02991 0.0488324 0)
(5.03315 0.0505099 0)
(5.03621 0.0518681 0)
(5.03905 0.0529504 0)
(5.0417 0.0538174 0)
(5.00021 0.00326158 0)
(5.00112 0.00944969 0)
(5.00302 0.0150107 0)
(5.00554 0.0199896 0)
(5.0084 0.0244071 0)
(5.01144 0.02828 0)
(5.01458 0.0316322 0)
(5.01774 0.0344974 0)
(5.02084 0.0369161 0)
(5.02385 0.0389331 0)
(5.02671 0.0405956 0)
(5.02942 0.0419498 0)
(5.03196 0.0430414 0)
(5.03431 0.0439082 0)
(5.0365 0.0446001 0)
(5.00021 0.00258685 0)
(5.00111 0.00748076 0)
(5.00301 0.0118389 0)
(5.00552 0.0156828 0)
(5.00832 0.0190364 0)
(5.01123 0.0219276 0)
(5.01418 0.0243892 0)
(5.0171 0.0264599 0)
(5.01991 0.0281822 0)
(5.02258 0.0295997 0)
(5.02508 0.0307544 0)
(5.0274 0.0316852 0)
(5.02953 0.0324283 0)
(5.03148 0.0330132 0)
(5.03327 0.0334738 0)
(5.00019 0.00185198 0)
(5.00101 0.00549912 0)
(5.00269 0.00898071 0)
(5.00489 0.0121863 0)
(5.00729 0.0150547 0)
(5.00976 0.0175709 0)
(5.01223 0.0197414 0)
(5.01464 0.0215845 0)
(5.01697 0.0231279 0)
(5.01917 0.0244044 0)
(5.02124 0.025449 0)
(5.02317 0.0262952 0)
(5.02496 0.0269748 0)
(5.0266 0.0275149 0)
(5.02808 0.0279437 0)
(5.00041 0.000735468 0)
(5.0019 0.00227248 0)
(5.00423 0.00389837 0)
(5.00684 0.00554172 0)
(5.00947 0.00718185 0)
(5.01204 0.00870413 0)
(5.01449 0.0100629 0)
(5.01679 0.0112485 0)
(5.01891 0.012268 0)
(5.02085 0.0131353 0)
(5.0226 0.0138669 0)
(5.02419 0.0144795 0)
(5.02561 0.0149891 0)
(5.02688 0.0154108 0)
(5.02802 0.0157589 0)
(5.0111 0.183738 0)
(5.01612 0.189847 -1.53037e-20)
(5.02196 0.196197 2.46748e-21)
(5.02827 0.202662 5.9937e-23)
(5.03516 0.209298 0)
(5.04279 0.215855 -1.30978e-20)
(5.05119 0.222233 9.33488e-21)
(5.06037 0.22835 1.76147e-20)
(5.07032 0.234112 8.17552e-21)
(5.08106 0.239441 0)
(5.0926 0.244265 -1.20573e-21)
(5.1049 0.248496 -9.26159e-22)
(5.11793 0.252042 8.33005e-22)
(5.13164 0.254814 1.48525e-21)
(5.14595 0.256723 2.07665e-22)
(5.16078 0.257687 0)
(5.17602 0.257629 5.56235e-21)
(5.19155 0.256482 -3.51348e-21)
(5.20724 0.254194 3.78481e-21)
(5.22294 0.250724 0)
(5.2385 0.246043 8.44771e-23)
(5.25377 0.240134 2.5505e-21)
(5.2686 0.233017 9.34571e-23)
(5.28286 0.224688 -2.77799e-23)
(5.2964 0.215275 6.29218e-19)
(5.3091 0.204461 -6.26961e-19)
(5.32085 0.193338 -3.15005e-23)
(5.33152 0.181367 -4.07879e-21)
(5.34104 0.168295 0)
(5.34936 0.1545 1.01279e-20)
(5.35644 0.140149 9.01374e-21)
(5.36228 0.125369 -9.21312e-21)
(5.36685 0.110284 1.12361e-21)
(5.37016 0.0950171 6.30713e-22)
(5.37223 0.0796839 -3.16602e-22)
(5.3731 0.0643966 2.23361e-20)
(5.37281 0.0492619 -6.34034e-22)
(5.37142 0.0343802 -1.87441e-20)
(5.369 0.0198447 -2.155e-20)
(5.36562 0.00574041 0)
(5.36135 -0.00785589 0)
(5.35627 -0.0208768 4.04126e-20)
(5.35048 -0.0332641 5.7406e-22)
(5.34407 -0.0449725 -2.83085e-22)
(5.33712 -0.0559557 0)
(5.32973 -0.0662391 -3.61259e-20)
(5.32203 -0.0756069 1.32769e-22)
(5.31413 -0.0849791 -6.30335e-20)
(5.30614 -0.0922072 -2.86649e-20)
(5.29804 -0.102096 0)
(5.02673 0.174573 0)
(5.0325 0.181192 1.38101e-20)
(5.03866 0.187737 1.27789e-20)
(5.04508 0.19418 7.5315e-23)
(5.05194 0.200498 -7.53972e-23)
(5.05937 0.206643 5.72238e-23)
(5.0674 0.212554 -8.40345e-21)
(5.07599 0.218165 -6.96275e-21)
(5.08513 0.22341 0)
(5.09482 0.22822 0)
(5.10504 0.232508 1.0905e-21)
(5.11575 0.236186 -4.36987e-22)
(5.12692 0.239172 -1.97326e-21)
(5.13849 0.241391 -4.09188e-23)
(5.15041 0.242774 -2.61974e-21)
(5.16262 0.243256 -5.50303e-23)
(5.17502 0.242781 -4.58289e-21)
(5.18756 0.241307 -9.87525e-23)
(5.20012 0.2388 -3.34375e-21)
(5.21263 0.235242 0)
(5.22498 0.230633 0)
(5.23708 0.224987 -4.59986e-21)
(5.24883 0.218331 -2.50346e-21)
(5.26013 0.210706 4.17439e-23)
(5.27089 0.202167 1.00429e-17)
(5.281 0.192786 -1.00198e-17)
(5.29037 0.18262 1.53048e-21)
(5.29905 0.171765 6.92628e-21)
(5.307 0.160333 -3.21261e-21)
(5.31409 0.148424 6.76398e-21)
(5.32025 0.136135 -8.47825e-21)
(5.32548 0.123561 8.65972e-21)
(5.32977 0.110804 8.5611e-21)
(5.33313 0.0979581 -1.46875e-20)
(5.33556 0.0851184 -1.5591e-20)
(5.33708 0.0723725 5.08857e-22)
(5.3377 0.0598035 -2.54719e-22)
(5.33747 0.0474877 1.73939e-20)
(5.33641 0.0354947 0)
(5.33457 0.0238866 1.54565e-20)
(5.33199 0.012718 -4.97296e-22)
(5.32873 0.00203446 0)
(5.32484 -0.00812186 2.85865e-20)
(5.32037 -0.0177373 0)
(5.31537 -0.0267173 0)
(5.3099 -0.0353608 0)
(5.30403 -0.0434994 0)
(5.29774 -0.0510937 2.7371e-20)
(5.2911 -0.0579107 2.60678e-20)
(5.28408 -0.0643279 0)
(5.03624 0.161658 1.86885e-23)
(5.04118 0.166463 -1.87137e-23)
(5.04653 0.171053 0)
(5.05222 0.17546 0)
(5.05833 0.179683 5.92249e-21)
(5.06489 0.183685 1.34863e-22)
(5.07191 0.187419 4.05282e-21)
(5.07936 0.19084 -1.62239e-21)
(5.08725 0.193905 5.25129e-23)
(5.09556 0.196568 0)
(5.10429 0.198783 3.12419e-24)
(5.1134 0.200512 1.06286e-21)
(5.12287 0.201717 1.1171e-21)
(5.13267 0.202359 0)
(5.14273 0.202401 -2.53362e-21)
(5.15301 0.201808 3.1732e-21)
(5.16345 0.200551 4.16728e-21)
(5.17399 0.198608 2.22934e-21)
(5.18455 0.195962 0)
(5.19505 0.192603 0)
(5.20543 0.18853 1.08794e-22)
(5.21561 0.183748 1.52261e-22)
(5.2255 0.178272 2.17412e-21)
(5.23503 0.172123 -9.75205e-22)
(5.24414 0.16534 2.13769e-17)
(5.25276 0.157939 -2.13313e-17)
(5.26083 0.15007 -1.39688e-21)
(5.2683 0.141187 -5.41809e-21)
(5.27511 0.132601 5.80683e-21)
(5.28123 0.123363 -6.45613e-21)
(5.28662 0.113729 1.86759e-22)
(5.29126 0.103811 5.45322e-21)
(5.29514 0.0936828 5.74765e-21)
(5.29827 0.0834111 7.80731e-21)
(5.30063 0.0730607 1.3772e-20)
(5.30224 0.0626951 -1.18815e-20)
(5.30312 0.0523748 0)
(5.30329 0.0421577 -1.19279e-20)
(5.30278 0.032098 0)
(5.30162 0.0222467 -1.4384e-21)
(5.29985 0.0126506 -3.90765e-22)
(5.29752 0.00335208 1.15654e-20)
(5.29466 -0.00561018 -2.60633e-20)
(5.29133 -0.0142038 -2.27431e-20)
(5.28758 -0.0223941 1.86759e-22)
(5.28344 -0.0301713 -2.12388e-20)
(5.27894 -0.0375217 0)
(5.27412 -0.0444475 0)
(5.26902 -0.0508898 3.93285e-23)
(5.26376 -0.0569198 -3.93068e-23)
(5.04513 0.148497 0)
(5.05004 0.152453 0)
(5.05528 0.15628 -4.38394e-23)
(5.06081 0.159976 4.3879e-23)
(5.06664 0.163516 -5.39823e-21)
(5.07281 0.166868 0)
(5.0793 0.169996 -3.73903e-21)
(5.0861 0.172865 1.39315e-21)
(5.0932 0.17544 2.53053e-23)
(5.10057 0.177685 0)
(5.10821 0.179563 -3.95457e-22)
(5.11608 0.181038 -6.05944e-22)
(5.12416 0.182071 0)
(5.1324 0.182626 0)
(5.14078 0.182672 2.21433e-21)
(5.14925 0.182181 -2.89558e-21)
(5.15778 0.181133 1.70035e-21)
(5.16631 0.179508 -3.86237e-21)
(5.17479 0.177295 2.07205e-21)
(5.18319 0.174488 0)
(5.19145 0.171087 0)
(5.19951 0.167099 1.53103e-21)
(5.20734 0.162537 -1.4837e-21)
(5.21487 0.157421 1.80729e-22)
(5.22208 0.151776 2.59718e-17)
(5.2289 0.145634 -2.59254e-17)
(5.23532 0.13903 3.081e-23)
(5.24126 0.132011 2.34392e-21)
(5.2467 0.124606 -2.43194e-21)
(5.25165 0.116871 1.92895e-21)
(5.2561 0.108858 2.89209e-22)
(5.26 0.10062 -9.29292e-22)
(5.26335 0.0922102 -4.90448e-22)
(5.26613 0.0836793 9.23107e-21)
(5.26836 0.0750793 6.19719e-22)
(5.27002 0.0664608 1.97666e-20)
(5.27114 0.0578724 0)
(5.27171 0.0493601 1.08799e-20)
(5.27177 0.0409674 0)
(5.27132 0.0327345 -1.0776e-20)
(5.2704 0.024698 0)
(5.26901 0.0168908 -1.0542e-20)
(5.2672 0.00934205 0)
(5.26498 0.00207624 2.03896e-20)
(5.26239 -0.00488622 1.75378e-20)
(5.25945 -0.0115286 1.95061e-20)
(5.2562 -0.0178434 -1.38773e-22)
(5.25266 -0.0239943 1.38675e-22)
(5.24884 -0.0295203 0)
(5.24484 -0.0347551 0)
(5.0506 0.134378 -1.9792e-23)
(5.05498 0.137335 1.98125e-23)
(5.05959 0.140118 3.13772e-23)
(5.06439 0.142726 -3.31374e-21)
(5.06942 0.145143 -2.73949e-21)
(5.07468 0.147349 0)
(5.08017 0.149321 -7.9096e-22)
(5.08588 0.151035 -1.50712e-23)
(5.09179 0.152469 -1.54884e-22)
(5.09791 0.153601 0)
(5.1042 0.154411 -1.29501e-22)
(5.11066 0.154877 0)
(5.11726 0.154982 -1.17366e-21)
(5.12399 0.154711 -1.52338e-21)
(5.13082 0.154051 -1.87469e-21)
(5.13771 0.152991 1.11334e-21)
(5.14464 0.151522 -1.54388e-21)
(5.15157 0.149637 1.65831e-21)
(5.15846 0.147333 -1.78313e-21)
(5.1653 0.144611 -1.80551e-21)
(5.17202 0.141475 1.05367e-21)
(5.1786 0.137931 9.98616e-22)
(5.18501 0.13399 1.34771e-21)
(5.1912 0.129667 1.35107e-21)
(5.19714 0.124979 1.57627e-17)
(5.2028 0.119946 -1.57383e-17)
(5.20814 0.114593 7.60084e-22)
(5.21315 0.108945 -1.53077e-21)
(5.21779 0.103038 -1.05003e-22)
(5.22206 0.0969005 -1.97535e-22)
(5.22591 0.0905597 -3.04148e-21)
(5.22935 0.0840465 -3.9734e-21)
(5.23236 0.0773955 -4.0535e-21)
(5.23493 0.0706411 -8.8344e-22)
(5.23707 0.0638171 0)
(5.23876 0.056957 -1.31147e-21)
(5.24002 0.0500936 0)
(5.24085 0.0432584 0)
(5.24127 0.0364821 0)
(5.24128 0.0297937 -7.20929e-21)
(5.2409 0.0232202 0)
(5.24015 0.0167873 7.37941e-21)
(5.23904 0.0105183 -4.72484e-22)
(5.23761 0.00443459 2.9586e-24)
(5.23587 -0.00144422 -1.57493e-20)
(5.23384 -0.00710125 1.38429e-20)
(5.23155 -0.0125193 -3.33659e-22)
(5.22901 -0.017699 1.09673e-22)
(5.22623 -0.0226053 -5.23154e-23)
(5.22333 -0.0272699 5.22688e-23)
(5.0543 0.120156 1.40336e-23)
(5.0583 0.122401 3.02078e-21)
(5.06248 0.124498 0)
(5.06682 0.126451 2.97117e-21)
(5.07132 0.128251 3.3457e-21)
(5.076 0.129883 2.81923e-23)
(5.08084 0.131331 2.73285e-22)
(5.08583 0.13258 0)
(5.09097 0.133615 1.4596e-22)
(5.09623 0.13442 -1.71132e-23)
(5.10161 0.13498 -1.08766e-22)
(5.10709 0.135281 8.90168e-22)
(5.11264 0.135309 1.00231e-21)
(5.11825 0.135052 1.70669e-22)
(5.1239 0.134497 3.81611e-23)
(5.12957 0.133636 -9.75928e-23)
(5.13523 0.132459 0)
(5.14085 0.130962 -1.25251e-21)
(5.14642 0.129141 1.47052e-21)
(5.15191 0.126995 1.64893e-21)
(5.15729 0.124526 -2.27257e-22)
(5.16255 0.12174 -9.695e-22)
(5.16765 0.118642 3.12074e-23)
(5.17257 0.115243 -1.16194e-22)
(5.17728 0.111555 1.6828e-17)
(5.18178 0.107593 -1.6806e-17)
(5.18604 0.103372 -8.54382e-23)
(5.19004 0.0989133 7.83654e-22)
(5.19376 0.0942361 0)
(5.19719 0.0893623 -6.76641e-23)
(5.20032 0.0843152 2.63296e-21)
(5.20315 0.0791194 1.72189e-22)
(5.20566 0.0738003 0)
(5.20784 0.0683837 -3.16328e-21)
(5.20971 0.0628954 0)
(5.21125 0.057361 -6.85613e-21)
(5.21246 0.0518058 -5.4957e-21)
(5.21336 0.0462545 3.7526e-22)
(5.21395 0.0407307 5.17323e-21)
(5.21423 0.0352572 1.25066e-20)
(5.21421 0.0298555 0)
(5.21391 0.0245457 -9.69148e-22)
(5.21333 0.0193462 0)
(5.21249 0.0142744 -5.46688e-21)
(5.2114 0.00934481 1.81641e-22)
(5.21008 0.0045734 -1.25852e-20)
(5.20854 -3.7445e-05 0)
(5.2068 -0.00443616 0)
(5.20486 -0.00878825 1.02557e-20)
(5.2028 -0.012821 -4.2337e-23)
(5.05529 0.105812 1.99872e-23)
(5.05876 0.107424 -4.89866e-21)
(5.06235 0.108894 -1.81568e-21)
(5.06605 0.110227 7.23154e-22)
(5.06985 0.111416 -7.85918e-22)
(5.07377 0.112449 -2.53414e-23)
(5.0778 0.113315 4.1279e-22)
(5.08191 0.114005 -4.75566e-23)
(5.08612 0.114507 0)
(5.0904 0.114812 -2.34808e-23)
(5.09476 0.11491 5.06007e-22)
(5.09917 0.114795 -1.39129e-21)
(5.10362 0.114457 0)
(5.10811 0.113892 1.18339e-21)
(5.11261 0.113094 1.42025e-21)
(5.11712 0.11206 -1.54694e-21)
(5.12162 0.110789 0)
(5.12608 0.109279 1.96662e-21)
(5.13051 0.107531 -1.17619e-21)
(5.13487 0.105547 -4.67313e-22)
(5.13915 0.103332 -7.74888e-22)
(5.14334 0.10089 0)
(5.14742 0.0982272 -4.64745e-23)
(5.15136 0.0953527 -3.80837e-22)
(5.15517 0.0922756 1.10605e-17)
(5.15881 0.0890068 -1.10486e-17)
(5.16227 0.0855585 -5.51631e-22)
(5.16556 0.0819438 5.71595e-22)
(5.16864 0.0781769 8.82119e-22)
(5.17151 0.0742731 -1.10171e-21)
(5.17416 0.0702481 0)
(5.17658 0.066118 0)
(5.17877 0.0618996 1.96144e-21)
(5.18073 0.0576097 1.99875e-21)
(5.18244 0.0532653 0)
(5.18391 0.0488836 0)
(5.18513 0.0444812 5.00472e-21)
(5.18611 0.0400747 4.19741e-21)
(5.18685 0.0356803 -8.34953e-22)
(5.18736 0.0313134 -4.77934e-21)
(5.18764 0.0269892 -2.86048e-22)
(5.18769 0.0227216 -5.04531e-21)
(5.18753 0.0185243 4.23259e-21)
(5.18716 0.0144098 4.69793e-21)
(5.18659 0.0103898 -3.90394e-21)
(5.18583 0.00647507 -1.38384e-22)
(5.1849 0.00267522 4.2469e-21)
(5.1838 -0.000999909 -8.11918e-21)
(5.18254 -0.0045447 -1.72431e-20)
(5.18116 -0.0079657 -6.6183e-23)
(5.05452 0.0920654 0)
(5.05755 0.0932342 1.9536e-21)
(5.06066 0.094285 1.62127e-21)
(5.06385 0.0952229 -1.17159e-21)
(5.06711 0.0960444 0)
(5.07046 0.0967431 0)
(5.07387 0.0973124 0)
(5.07735 0.0977459 3.00588e-23)
(5.08088 0.0980376 0)
(5.08446 0.0981816 0)
(5.08808 0.0981727 0)
(5.09174 0.0980058 1.1878e-21)
(5.09541 0.0976767 0)
(5.09909 0.0971814 -4.26085e-22)
(5.10278 0.0965169 7.19333e-23)
(5.10645 0.0956809 1.14446e-21)
(5.1101 0.0946713 0)
(5.11371 0.093487 -8.2143e-22)
(5.11727 0.0921279 7.11513e-22)
(5.12078 0.0905952 6.06847e-22)
(5.12422 0.0888909 4.40524e-24)
(5.12757 0.0870182 -6.3474e-23)
(5.13083 0.0849812 0)
(5.13398 0.082785 0)
(5.13702 0.0804356 -2.3472e-18)
(5.13993 0.07794 2.34502e-18)
(5.14271 0.0753061 0)
(5.14535 0.0725425 0)
(5.14783 0.0696588 -1.46453e-21)
(5.15016 0.0666649 0)
(5.15232 0.0635716 0)
(5.15431 0.0603899 1.64071e-21)
(5.15613 0.0571315 -1.98549e-21)
(5.15777 0.0538081 -1.81928e-21)
(5.15924 0.0504318 -2.11519e-22)
(5.16052 0.0470148 4.25542e-22)
(5.16162 0.043569 -1.56629e-21)
(5.16255 0.0401066 -4.25588e-21)
(5.16329 0.0366392 -4.32888e-22)
(5.16386 0.0331785 0)
(5.16426 0.0297356 3.00366e-21)
(5.16449 0.026321 3.45076e-21)
(5.16455 0.022945 -3.6334e-21)
(5.16446 0.0196173 -2.20007e-22)
(5.16421 0.0163468 3.81095e-21)
(5.16382 0.0131419 0)
(5.16329 0.0100105 -6.9129e-21)
(5.16263 0.00695846 7.49729e-21)
(5.16183 0.00399757 7.18443e-21)
(5.16095 0.00111003 0)
(5.052 0.0785746 0)
(5.05455 0.0793727 -1.64961e-23)
(5.05715 0.0800704 4.32414e-23)
(5.0598 0.0806722 4.21523e-22)
(5.0625 0.0811757 2.3691e-22)
(5.06524 0.0815767 -1.40663e-22)
(5.06803 0.0818706 4.31288e-23)
(5.07085 0.0820533 2.29097e-23)
(5.0737 0.082121 -1.54975e-22)
(5.07658 0.0820699 0)
(5.07947 0.0818969 0)
(5.08238 0.0815991 -5.87612e-22)
(5.08529 0.0811741 6.74187e-23)
(5.0882 0.0806202 3.38866e-22)
(5.0911 0.0799359 4.81365e-22)
(5.09399 0.0791205 -5.66578e-22)
(5.09685 0.0781739 0)
(5.09969 0.0770969 0)
(5.10248 0.0758908 -6.95713e-22)
(5.10523 0.0745576 8.74671e-23)
(5.10793 0.0730996 -8.7411e-23)
(5.11056 0.0715198 3.55517e-22)
(5.11313 0.0698218 -2.14915e-22)
(5.11562 0.06801 1.2584e-22)
(5.11802 0.0660889 -1.90229e-18)
(5.12034 0.064064 1.90082e-18)
(5.12256 0.0619412 3.16816e-23)
(5.12468 0.0597266 -3.16567e-23)
(5.12669 0.0574271 5.34322e-22)
(5.12859 0.0550497 6.78381e-23)
(5.13037 0.0526019 -1.43708e-22)
(5.13202 0.0500913 -1.16682e-21)
(5.13356 0.0475259 0)
(5.13497 0.0449136 0)
(5.13625 0.0422626 -1.55882e-22)
(5.13739 0.039581 1.55741e-22)
(5.13841 0.0368772 1.4279e-21)
(5.1393 0.034159 0)
(5.14005 0.0314348 -4.10068e-21)
(5.14068 0.0287132 0)
(5.14117 0.0260012 -2.9353e-21)
(5.14154 0.0233058 -6.76309e-22)
(5.14179 0.0206339 1.64886e-22)
(5.14191 0.0179924 2.43671e-21)
(5.14192 0.0153877 -2.43437e-21)
(5.14182 0.0128258 -2.42819e-21)
(5.1416 0.0103126 3.05074e-21)
(5.14128 0.00785283 -2.43347e-22)
(5.14086 0.00545254 -2.30743e-21)
(5.14037 0.00311126 0)
(5.04804 0.0665381 0)
(5.05019 0.0671143 0)
(5.05238 0.06761 2.87971e-22)
(5.0546 0.0680299 -1.35016e-23)
(5.05685 0.0683728 -2.01289e-22)
(5.05913 0.0686365 2.03907e-22)
(5.06144 0.0688184 -3.91046e-23)
(5.06376 0.0689163 -1.2735e-23)
(5.06611 0.068928 1.53263e-22)
(5.06846 0.0688517 0)
(5.07083 0.0686855 0)
(5.0732 0.0684282 0)
(5.07556 0.0680786 2.17214e-22)
(5.07792 0.0676358 -3.2747e-22)
(5.08027 0.0670992 -2.70253e-22)
(5.0826 0.0664687 9.38712e-23)
(5.08491 0.0657443 -4.55089e-22)
(5.08719 0.0649265 0)
(5.08944 0.0640157 0)
(5.09164 0.0630129 2.31923e-22)
(5.09381 0.0619196 1.77666e-22)
(5.09592 0.0607378 -2.52202e-22)
(5.09798 0.0594698 1.31546e-22)
(5.09998 0.0581184 -7.15696e-23)
(5.10191 0.0566864 3.15056e-18)
(5.10377 0.0551774 -3.14858e-18)
(5.10557 0.053595 2.27938e-23)
(5.10728 0.0519433 -1.74675e-22)
(5.10891 0.0502266 0)
(5.11046 0.0484495 0)
(5.11192 0.0466168 -1.07561e-22)
(5.11329 0.0447334 2.17716e-22)
(5.11457 0.0428045 2.55068e-24)
(5.11575 0.0408355 -1.12612e-22)
(5.11684 0.0388318 -8.39306e-22)
(5.11783 0.0367989 -1.09126e-21)
(5.11873 0.0347422 2.37441e-22)
(5.11953 0.0326673 8.77746e-22)
(5.12024 0.0305798 1.97756e-22)
(5.12085 0.0284857 8.96183e-22)
(5.12136 0.0263906 0)
(5.12178 0.0242993 -1.95937e-21)
(5.1221 0.0222166 1.82618e-21)
(5.12233 0.020147 -2.46791e-21)
(5.12247 0.0180955 2.21471e-21)
(5.12253 0.0160663 2.08353e-21)
(5.1225 0.0140641 1.25449e-22)
(5.12239 0.0120921 0)
(5.1222 0.0101569 2.17268e-21)
(5.12196 0.00825015 0)
(5.04383 0.0543748 -9.39267e-24)
(5.0456 0.0547508 9.40087e-24)
(5.04738 0.0550638 -2.61103e-22)
(5.04918 0.0553169 -1.66327e-22)
(5.051 0.0555095 -7.16211e-23)
(5.05283 0.0556402 -7.87172e-23)
(5.05468 0.0557074 8.71305e-24)
(5.05653 0.0557099 -3.52036e-23)
(5.05839 0.0556463 -1.94996e-23)
(5.06026 0.0555154 -7.27447e-24)
(5.06212 0.0553165 -8.31317e-23)
(5.06398 0.0550485 0)
(5.06584 0.0547111 -1.96996e-22)
(5.06768 0.0543039 2.30051e-22)
(5.06951 0.0538267 0)
(5.07132 0.0532797 0)
(5.07312 0.0526632 1.94569e-22)
(5.07489 0.0519777 0)
(5.07663 0.0512246 0)
(5.07834 0.0504051 -2.10477e-22)
(5.08002 0.0495207 -3.1618e-22)
(5.08166 0.0485728 0)
(5.08326 0.0475634 1.02116e-22)
(5.08481 0.0464945 -1.51622e-23)
(5.08632 0.0453684 2.52812e-18)
(5.08778 0.0441875 -2.52692e-18)
(5.08918 0.0429545 -1.65369e-23)
(5.09053 0.0416724 3.1368e-23)
(5.09182 0.040344 0)
(5.09306 0.0389725 -7.58606e-23)
(5.09423 0.0375615 -2.15307e-24)
(5.09533 0.0361143 7.79155e-23)
(5.09637 0.0346345 0)
(5.09735 0.0331255 0)
(5.09826 0.0315928 7.63037e-22)
(5.09909 0.0300326 6.03185e-22)
(5.09986 0.0284811 1.7278e-22)
(5.10056 0.0268039 -7.98148e-22)
(5.10119 0.0251692 1.2812e-21)
(5.10176 0.0236493 2.07244e-22)
(5.10226 0.0220619 -6.65912e-22)
(5.10269 0.0204605 -1.82812e-22)
(5.10304 0.0188602 -9.82767e-22)
(5.10332 0.0172665 0)
(5.10355 0.0156833 1.86001e-22)
(5.1037 0.0141135 -3.71914e-22)
(5.10379 0.0125599 -1.18474e-21)
(5.10383 0.0110255 -9.27875e-23)
(5.1038 0.00951268 4.64466e-23)
(5.10372 0.00802495 4.61848e-23)
(5.03827 0.0450455 -2.08292e-22)
(5.03974 0.0453462 -8.55581e-23)
(5.04122 0.0455976 0)
(5.04271 0.0458025 1.35787e-22)
(5.04422 0.0459611 9.61661e-23)
(5.04573 0.0460724 -7.57327e-24)
(5.04725 0.0461356 -9.52489e-24)
(5.04877 0.0461499 -4.13783e-24)
(5.05029 0.0461147 6.14848e-23)
(5.05182 0.0460294 7.20945e-23)
(5.05334 0.0458937 1.41581e-22)
(5.05485 0.0457071 -8.01536e-23)
(5.05636 0.0454696 -1.23682e-22)
(5.05786 0.045181 0)
(5.05935 0.0448415 0)
(5.06082 0.0444513 -8.96628e-23)
(5.06227 0.0440108 2.19401e-22)
(5.0637 0.0435205 0)
(5.06511 0.0429808 -1.16387e-22)
(5.0665 0.0423922 0)
(5.06786 0.0417557 1.86791e-22)
(5.06919 0.0410722 -7.77479e-23)
(5.07049 0.040343 -3.15295e-23)
(5.07175 0.0395696 -2.11203e-23)
(5.07298 0.0387534 -2.04674e-18)
(5.07417 0.0378959 2.04595e-18)
(5.07532 0.0369991 4.47581e-23)
(5.07643 0.0360647 6.32707e-23)
(5.07749 0.0350947 5.23107e-23)
(5.07851 0.0340911 4.33739e-23)
(5.07948 0.0330562 5.57818e-23)
(5.08041 0.0319921 2.09796e-22)
(5.08129 0.0309013 0)
(5.08212 0.0297859 0)
(5.0829 0.0286491 1.25921e-22)
(5.08363 0.0274909 -1.25833e-22)
(5.08431 0.0263242 0)
(5.08494 0.0251083 4.73167e-22)
(5.08551 0.0238337 -1.1425e-22)
(5.08603 0.0226093 -6.00774e-22)
(5.08651 0.0214263 1.15515e-22)
(5.08693 0.0202633 -4.95857e-22)
(5.0873 0.0190531 -2.54753e-22)
(5.08762 0.0178329 1.38977e-22)
(5.08789 0.0166129 1.40501e-22)
(5.0881 0.0153971 -1.40361e-22)
(5.08826 0.0141878 1.24588e-21)
(5.08838 0.0129872 0)
(5.08845 0.0117978 -5.10798e-22)
(5.08849 0.0106182 -1.02097e-21)
(5.03469 0.033774 1.15861e-22)
(5.03585 0.0339737 7.75596e-23)
(5.03702 0.0341333 -3.70973e-23)
(5.03819 0.0342573 2.32026e-23)
(5.03937 0.03435 1.68082e-24)
(5.04054 0.0344125 4.11258e-24)
(5.04172 0.0344439 6.31167e-24)
(5.0429 0.0344426 1.07227e-24)
(5.04407 0.0344069 -6.98184e-23)
(5.04524 0.0343353 -6.79369e-23)
(5.0464 0.0342275 -4.36405e-23)
(5.04756 0.0340835 9.50166e-23)
(5.0487 0.0339033 6.53185e-23)
(5.04984 0.0336868 5.3563e-23)
(5.05097 0.0334343 6.02374e-23)
(5.05208 0.0331459 5.33019e-23)
(5.05318 0.0328218 -1.22711e-22)
(5.05426 0.0324628 -8.80565e-23)
(5.05532 0.0320696 1.08254e-22)
(5.05636 0.0316429 0)
(5.05739 0.0311833 -6.04651e-23)
(5.05839 0.0306918 2.93529e-23)
(5.05936 0.0301691 -1.39095e-23)
(5.06031 0.0296162 -2.98687e-23)
(5.06124 0.0290342 -1.6434e-18)
(5.06214 0.0284242 1.64295e-18)
(5.06301 0.0277874 -2.42088e-23)
(5.06385 0.0271246 0)
(5.06465 0.0264318 0)
(5.06543 0.0257134 -9.00381e-23)
(5.06617 0.0249714 0)
(5.06688 0.024208 -1.05697e-22)
(5.06756 0.0234241 -8.47396e-23)
(5.0682 0.0226208 -8.07758e-23)
(5.06881 0.0217991 0)
(5.06938 0.0209603 -1.68328e-22)
(5.06992 0.020104 -3.58717e-22)
(5.07042 0.0192345 -6.83705e-23)
(5.07088 0.0183453 -6.28606e-22)
(5.07131 0.0174845 3.87651e-22)
(5.0717 0.0166412 2.5129e-22)
(5.07205 0.0157806 2.6721e-22)
(5.07237 0.0149482 -2.53626e-22)
(5.07266 0.0140866 1.72709e-22)
(5.07291 0.0132805 4.77345e-22)
(5.07312 0.0124201 -1.01471e-22)
(5.07329 0.0115497 4.82048e-22)
(5.07343 0.0106807 -4.83274e-22)
(5.07353 0.0098162 4.64236e-22)
(5.0736 0.00895987 5.45443e-22)
(5.02933 0.0282336 3.62518e-23)
(5.03035 0.0284358 7.49564e-24)
(5.03136 0.0286097 4.19733e-23)
(5.03235 0.0287569 -1.49186e-23)
(5.03336 0.0288777 4.37111e-25)
(5.03438 0.028972 -1.13093e-23)
(5.03538 0.0290396 -6.78173e-24)
(5.03639 0.0290801 3.51495e-23)
(5.03739 0.0290932 -1.67574e-23)
(5.03839 0.0290784 1.67663e-23)
(5.03937 0.0290344 2.81603e-23)
(5.04036 0.0289607 -4.4272e-23)
(5.04133 0.0288579 2.39697e-23)
(5.0423 0.028726 -2.77225e-23)
(5.04326 0.0285656 -8.19181e-23)
(5.0442 0.0283768 1.11078e-22)
(5.04513 0.0281601 3.32372e-23)
(5.04605 0.0279156 -4.82582e-23)
(5.04696 0.0276438 7.22466e-23)
(5.04785 0.0273453 1.71823e-23)
(5.04872 0.0270205 2.26196e-23)
(5.04957 0.02667 -4.08594e-23)
(5.05041 0.0262946 -2.28293e-23)
(5.05122 0.0258948 3.59138e-23)
(5.05202 0.0254716 -1.01479e-18)
(5.05279 0.0250256 1.01457e-18)
(5.05354 0.0245578 1.23635e-23)
(5.05427 0.024069 1.02491e-24)
(5.05497 0.0235601 -2.82543e-23)
(5.05565 0.0230328 3.37639e-23)
(5.0563 0.0224848 -1.22513e-22)
(5.05692 0.0219146 -1.74526e-24)
(5.05752 0.0213261 6.3858e-23)
(5.05809 0.0207206 -1.19869e-22)
(5.05863 0.0200991 1.34071e-22)
(5.05914 0.0194624 9.12531e-23)
(5.05962 0.0188107 9.29121e-23)
(5.06007 0.0181451 -1.58116e-22)
(5.06049 0.0174642 -1.46942e-22)
(5.06088 0.0167727 1.46838e-22)
(5.06124 0.0161012 1.50791e-22)
(5.06157 0.0154373 1.68179e-22)
(5.06188 0.0147735 -3.0631e-22)
(5.06215 0.0141122 -4.76997e-22)
(5.06241 0.0134504 -2.94691e-23)
(5.06263 0.0128023 -7.75911e-23)
(5.06283 0.0121299 -5.63058e-22)
(5.06299 0.0114421 3.45965e-22)
(5.06313 0.0107523 -3.98892e-23)
(5.06325 0.0100634 2.45889e-22)
(5.02892 0.0159832 2.02981e-23)
(5.02965 0.0161875 0)
(5.03038 0.0163805 0)
(5.03111 0.016558 -7.12869e-24)
(5.03184 0.0167159 -6.90682e-24)
(5.03256 0.0168535 -3.73729e-24)
(5.03328 0.0169713 1.76182e-23)
(5.03399 0.0170702 -1.15546e-23)
(5.03469 0.0171516 0)
(5.03539 0.0172151 0)
(5.03609 0.0172597 0)
(5.03677 0.0172849 1.458e-23)
(5.03745 0.0172912 1.67322e-23)
(5.03812 0.0172796 -1.88704e-23)
(5.03877 0.0172503 -6.32061e-23)
(5.03942 0.0172037 4.22304e-23)
(5.04006 0.0171397 0)
(5.04069 0.0170588 1.35862e-23)
(5.04131 0.0169612 5.51756e-23)
(5.04191 0.0168471 -4.16109e-23)
(5.0425 0.0167169 -4.32669e-23)
(5.04308 0.016571 3.06569e-23)
(5.04364 0.0164095 0)
(5.04419 0.016233 -8.74924e-24)
(5.04472 0.0160418 -8.12229e-19)
(5.04524 0.0158363 8.12143e-19)
(5.04574 0.015617 0)
(5.04623 0.0153842 0)
(5.0467 0.0151385 0)
(5.04715 0.0148805 2.41249e-23)
(5.04758 0.0146106 0)
(5.048 0.0143295 0)
(5.0484 0.0140377 -9.15039e-23)
(5.04878 0.0137359 1.45e-22)
(5.04914 0.0134246 0)
(5.04948 0.0131045 5.57889e-23)
(5.0498 0.0127762 1.55346e-22)
(5.05011 0.0124405 -9.84759e-23)
(5.05039 0.012098 0)
(5.05065 0.0117494 0)
(5.05089 0.0113951 1.0383e-22)
(5.05111 0.0110353 -1.03756e-22)
(5.05132 0.0106711 0)
(5.0515 0.0103028 1.24154e-22)
(5.05167 0.00993122 -1.07482e-22)
(5.05182 0.00955726 1.07389e-22)
(5.05196 0.00918012 1.26764e-22)
(5.05208 0.00880718 0)
(5.05218 0.00842675 0)
(5.05226 0.00806331 1.28248e-22)
(5.28872 -0.106104 0)
(5.27835 -0.109024 0)
(5.26777 -0.11181 0)
(5.25694 -0.113992 0)
(5.24612 -0.115362 0)
(5.23559 -0.115996 0)
(5.22546 -0.115987 0)
(5.21576 -0.115377 0)
(5.20655 -0.114212 0)
(5.19785 -0.112552 0)
(5.18971 -0.110468 0)
(5.18211 -0.108026 0)
(5.17507 -0.105289 0)
(5.16856 -0.102314 0)
(5.16257 -0.099152 0)
(5.15709 -0.0958547 0)
(5.15208 -0.0924424 0)
(5.14752 -0.0890724 0)
(5.14338 -0.0856721 0)
(5.13963 -0.0822414 0)
(5.13627 -0.0788492 0)
(5.13327 -0.0755211 0)
(5.13059 -0.0722706 0)
(5.1282 -0.0691067 0)
(5.12608 -0.0660338 0)
(5.1242 -0.0630586 0)
(5.12255 -0.060188 0)
(5.12111 -0.0574267 0)
(5.11985 -0.054777 0)
(5.11875 -0.0522402 0)
(5.11781 -0.0498166 0)
(5.117 -0.047506 0)
(5.11632 -0.0453058 0)
(5.11575 -0.0432166 0)
(5.11528 -0.0412313 0)
(5.11489 -0.0393389 0)
(5.11458 -0.0375365 0)
(5.11433 -0.035825 0)
(5.11413 -0.0342077 0)
(5.114 -0.0326833 0)
(5.11392 -0.0312464 0)
(5.11388 -0.0298908 0)
(5.11388 -0.0286113 0)
(5.11392 -0.027404 0)
(5.11398 -0.0262653 0)
(5.11408 -0.0251918 0)
(5.1142 -0.0241806 0)
(5.11434 -0.0232289 0)
(5.1145 -0.0223341 0)
(5.11468 -0.0214935 0)
(5.11487 -0.0207045 0)
(5.11508 -0.0199652 0)
(5.1153 -0.0192731 0)
(5.11553 -0.0186267 0)
(5.11577 -0.0180244 0)
(5.11602 -0.0174644 0)
(5.11628 -0.0169453 0)
(5.11655 -0.0164658 0)
(5.11683 -0.0160246 0)
(5.11711 -0.015621 0)
(5.11741 -0.0152543 0)
(5.11771 -0.0149249 0)
(5.11802 -0.014632 0)
(5.11834 -0.0143767 0)
(5.11868 -0.0141579 0)
(5.11901 -0.0139781 0)
(5.11938 -0.0138374 0)
(5.11966 -0.0137306 0)
(5.12022 -0.013664 0)
(5.27523 -0.06995 0)
(5.26485 -0.0753051 0)
(5.25471 -0.0799954 0)
(5.24495 -0.0839332 0)
(5.23545 -0.0870748 0)
(5.22618 -0.0894611 0)
(5.21723 -0.0911517 0)
(5.20864 -0.0921955 0)
(5.20045 -0.0926402 0)
(5.19266 -0.0925413 0)
(5.1853 -0.0919586 0)