/*--------------------------------*- C++ -*----------------------------------*\
| =========                 |                                                 |
| \\      /  F ield         | OpenFOAM: The Open Source CFD Toolbox           |
|  \\    /   O peration     | Version:  2412                                  |
|   \\  /    A nd           | Website:  www.openfoam.com                      |
|    \\/     M anipulation  |                                                 |
\*---------------------------------------------------------------------------*/
FoamFile
{
    version     2.0;
    format      ascii;
    arch        "LSB;label=32;scalar=64";
    class       volScalarField;
    location    "1500";
    object      yPlus;
}
// * * * * * * * * * * * * * * * * * * * * * * * * * * * * * * * * * * * * * //

dimensions      [0 0 0 0 0 0 0];

internalField   uniform 0;

boundaryField
{
    sides
    {
        type            empty;
    }
    inlet
    {
        type            calculated;
        value           uniform 0;
    }
    topBot
    {
        type            calculated;
        value           uniform 0;
    }
    outlet
    {
        type            calculated;
        value           uniform 0;
    }
    wall
    {
        type            calculated;
        value           nonuniform List<scalar> 
200
(
613.444
597.512
580.749
563.166
544.779
525.606
505.701
485.082
463.775
441.8
419.177
395.923
372.053
347.58
322.516
296.868
270.621
243.743
216.122
187.741
159.136
129.83
97.5934
70.6508
51.2523
51.2527
70.6514
97.5949
129.833
159.14
187.744
216.125
243.745
270.624
296.871
322.519
347.583
372.055
395.925
419.179
441.803
463.777
485.085
505.703
525.609
544.781
563.169
580.751
597.515
613.447
83.8618
89.1724
94.655
100.103
105.316
110.108
114.307
117.763
120.357
121.983
122.553
121.997
120.313
117.459
113.455
108.297
102.035
94.6896
86.3094
76.9696
66.8705
56.1503
44.5596
33.9267
26.4987
26.4785
33.8816
44.5037
56.0968
66.8172
76.9159
86.2557
94.6363
101.982
108.245
113.403
117.407
120.262
121.946
122.504
121.934
120.31
117.718
114.264
110.068
105.278
100.068
94.6243
89.1457
83.8393
628.541
642.804
656.249
668.9
680.732
691.665
701.651
710.653
718.62
725.5
731.223
735.757
739.037
740.992
741.654
740.963
738.855
735.215
729.946
722.938
713.972
702.758
689.017
672.46
652.671
629.099
600.999
567.643
528.128
481.688
426.795
361.702
291.336
212.119
133.48
47.5254
68.1584
88.4481
98.4142
100.743
84.9765
73.9441
67.7509
66.7921
66.1192
66.4883
68.2845
70.9845
74.5672
78.9278
628.538
642.801
656.246
668.898
680.729
691.662
701.648
710.65
718.617
725.497
731.22
735.753
739.034
740.989
741.65
740.959
738.85
735.21
729.941
722.933
713.966
702.752
689.011
672.453
652.663
629.09
600.989
567.633
528.117
481.676
426.782
361.689
291.323
212.104
133.467
47.5113
68.1601
88.4445
98.4077
100.735
84.9696
73.9416
67.7506
66.7922
66.1185
66.4857
68.279
70.9752
74.5537
78.9097
)
;
    }
}


// ************************************************************************* //
